ITEM: TIMESTEP
372000
ITEM: NUMBER OF ATOMS
4050
ITEM: BOX BOUNDS ss ss pp
-2.0259671408183998e+01 1.9982757024247370e+01
-2.0152166541536772e+01 2.0024077242501413e+01
-5.0508300000000013e+00 5.9360830000000000e+01
ITEM: ATOMS id type x y z c_peratom
1 1 -11.2434 -14.3915 -2.60204 -4.28394
2 1 -7.77598 -17.1705 -4.89271 -4.12803
3 1 -8.50109 -16.3525 -0.753791 -4.56131
4 1 -6.94163 -18.1808 -1.17842 -3.65664
5 1 -5.95289 -16.1797 -3.67191 -4.90623
6 1 -4.94963 -17.9491 -2.23905 -4.3041
7 1 -2.44246 -17.4283 59.1461 -4.53137
8 1 -4.66502 -18.0659 -4.69264 -4.07361
9 1 -3.76281 -16.4884 -0.691873 -4.39519
10 1 -0.849484 -18.9889 -0.23402 -4.38336
11 1 -1.34771 -15.9877 -3.59531 -4.46766
12 1 0.204431 -18.7007 -3.31635 -4.06448
13 1 -0.475243 -17.1505 -1.76157 -4.62643
14 1 3.00297 -17.4437 -4.8363 -4.5763
15 1 2.34848 -19.4028 -3.51317 -4.35002
16 1 1.28394 -16.1226 -0.572572 -4.60681
17 1 3.11257 -18.8346 -1.34357 -4.15401
18 1 4.10527 -16.112 -3.33261 -4.64423
19 1 5.25328 -17.798 -2.10198 -4.43207
20 1 6.55709 -17.9597 -4.04289 -4.2514
21 1 9.39599 -16.86 -1.35674 -4.33644
22 1 6.16132 -16.2127 -0.55553 -4.53662
23 1 8.51164 -16.4492 -3.65045 -4.10474
24 1 10.7586 -15.0864 -0.557171 -4.64528
25 1 -14.7108 -12.0816 -3.27007 -4.14092
26 1 -14.7897 -13.4029 -0.89855 -4.04647
27 1 -13.0961 -14.8974 -1.0009 -4.25998
28 1 -12.299 -13.2487 57.9396 -4.42481
29 1 -12.7434 -13.1562 -3.94051 -4.48865
30 1 -14.289 -11.0256 -1.23625 -4.34782
31 1 -11.0994 -13.7454 -0.130969 -4.89391
32 1 -11.3125 -11.3221 -3.89865 -4.5572
33 1 -9.34404 -15.4898 58.8625 -4.21009
34 1 -9.75647 -12.5472 -2.74161 -4.3815
35 1 -7.18339 -14.872 -2.02382 -4.33262
36 1 -6.98359 -12.3213 59.1964 -4.55985
37 1 -8.22479 -13.8975 -3.98172 -4.51379
38 1 -8.75345 -11.4484 -0.436046 -4.21199
39 1 -5.99335 -13.688 -0.447015 -4.48281
40 1 -6.11727 -10.8119 -3.58416 -4.45464
41 1 -4.66333 -14.986 58.9172 -4.33257
42 1 -5.06599 -12.2781 -2.13221 -4.44644
43 1 -2.71916 -14.7409 -2.04707 -4.50601
44 1 -2.3188 -12.4847 59.108 -4.48623
45 1 -3.91491 -13.5157 -3.78271 -4.44109
46 1 -3.61398 -11.1685 -0.459205 -4.47538
47 1 -1.06179 -13.7075 -0.566914 -4.48337
48 1 -1.29766 -11.0416 -3.66405 -4.54637
49 1 0.0652247 -14.8875 59.3511 -4.5754
50 1 0.102509 -12.3082 -2.18044 -4.46168
51 1 2.56748 -14.9371 -2.05891 -4.4743
52 1 2.69506 -12.5446 59.2268 -4.47958
53 1 1.35114 -13.6512 -3.6025 -4.56456
54 1 1.35544 -11.1417 -0.293864 -4.47721
55 1 3.70471 -13.719 -0.510096 -4.51427
56 1 3.62286 -11.1464 -3.41094 -4.41983
57 1 5.18326 -14.998 59.3303 -4.55257
58 1 5.18666 -12.5017 -1.95944 -4.45794
59 1 7.7678 -15.0477 -1.97277 -4.97083
60 1 7.77514 -12.4031 59.1386 -4.3733
61 1 6.52053 -13.6923 -3.62591 -4.36055
62 1 6.33489 -11.0496 -0.263963 -4.51275
63 1 8.9876 -13.513 -0.530493 -4.44622
64 1 8.55848 -11.0261 -3.28562 -4.49919
65 1 10.0121 -15.2931 59.1303 -4.21389
66 1 10.1578 -12.0252 -1.92369 -4.31529
67 1 12.3353 -14.5538 -2.2695 -4.27432
68 1 11.5353 -11.666 -4.79768 -4.36278
69 1 10.5956 -13.5901 -3.67658 -4.86524
70 1 11.1866 -11.1388 0.143833 -4.48713
71 1 13.7712 -12.872 -1.25083 -4.13693
72 1 13.6696 -10.8285 -2.62298 -4.97494
73 1 15.5393 -12.2551 -2.74898 -4.09938
74 1 15.7698 -10.4019 -1.50917 -3.96903
75 1 -17.1298 -7.37112 58.6478 -4.16615
76 1 -18.1506 -5.81067 0.305657 -4.29934
77 1 -15.7856 -9.18299 -0.443894 -4.24746
78 1 -16.2051 -6.49594 -3.58104 -4.29195
79 1 -14.5876 -10.3034 -4.78663 -4.22625
80 1 -14.7326 -7.58545 -1.96547 -4.4948
81 1 -12.1104 -10.3726 -1.94945 -4.53307
82 1 -12.1303 -7.37037 -4.85428 -4.41554
83 1 -13.2313 -8.85385 -3.45976 -4.62987
84 1 -13.2128 -6.487 -0.476846 -4.50375
85 1 -10.9324 -8.85201 -0.446854 -4.42283
86 1 -10.9585 -5.91522 -3.52606 -4.54335
87 1 -9.5095 -9.87645 -4.98673 -4.36271
88 1 -9.89494 -7.28807 -1.9471 -4.54022
89 1 -7.49065 -9.91608 -1.8252 -4.5057
90 1 -7.19618 -7.38284 -5.10772 -4.48333
91 1 -8.49357 -8.54549 -3.37163 -4.51295
92 1 -8.47025 -6.00987 -0.407492 -4.47085
93 1 -6.11287 -8.64607 -0.26494 -4.49267
94 1 -5.9565 -5.89063 -3.51137 -4.47542
95 1 -4.55362 -9.78511 59.2358 -4.4804
96 1 -4.83416 -7.32368 -1.95208 -4.46918
97 1 -2.40449 -9.77502 -1.91693 -4.47889
98 1 -2.28577 -6.96462 -5.07148 -4.45575
99 1 -3.50842 -8.3744 -3.52541 -4.50151
100 1 -3.49945 -6.23548 -0.259164 -4.49264
101 1 -1.09459 -8.76224 -0.188 -4.49186
102 1 -1.0284 -5.91607 -3.25846 -4.50598
103 1 0.249915 -9.76589 -5.02622 -4.52921
104 1 0.0781574 -7.31966 -1.71637 -4.5081
105 1 2.80252 -9.8177 -1.72535 -4.46999
106 1 2.46396 -7.23008 -4.84209 -4.53343
107 1 1.3321 -8.62224 -3.27424 -4.50549
108 1 1.38538 -5.98564 -0.0671673 -4.51569
109 1 3.98072 -8.41154 -0.100581 -4.41438
110 1 3.86337 -6.08174 -3.31708 -4.55715
111 1 4.83298 -9.94768 59.3807 -4.48555
112 1 5.18201 -7.36858 -1.91513 -4.43867
113 1 7.53258 -9.65066 -1.65157 -4.40477
114 1 7.478 -7.36639 -4.96066 -4.51114
115 1 6.24179 -8.72166 -3.48694 -4.46382
116 1 6.26997 -6.14514 -0.183217 -4.383
117 1 8.67841 -8.58596 0.13362 -4.4479
118 1 8.75544 -6.22123 -3.17535 -4.44663
119 1 10.0488 -9.78324 -4.46693 -4.45116
120 1 9.89171 -7.35797 -1.3634 -4.54584
121 1 12.5839 -9.55757 -0.987234 -4.44292
122 1 12.0999 -7.2935 -4.62206 -4.46194
123 1 11.3384 -8.63144 -2.76329 -4.44988
124 1 11.2577 -5.88535 -0.127642 -4.46246
125 1 13.8281 -8.00885 0.22813 -4.57982
126 1 13.556 -5.93005 -3.31138 -4.6667
127 1 14.6986 -9.48523 -4.42446 -4.47026
128 1 14.8956 -7.12163 -1.81377 -4.6427
129 1 16.5517 -6.4221 -4.78879 -4.34225
130 1 16.3201 -8.63598 -3.03464 -4.24571
131 1 16.2193 -5.36385 -0.945264 -4.53923
132 1 18.4242 -5.03383 -4.71541 -3.92484
133 1 -17.7125 -5.26508 -2.06273 -4.17062
134 1 -17.2132 -2.49594 -4.69954 -4.96953
135 1 -18.5414 -3.02751 -2.74919 -4.2516
136 1 -17.3806 -1.81572 -1.07716 -4.60465
137 1 -16.1815 -4.73813 -0.354544 -4.46963
138 1 -15.8198 -0.645671 -3.74164 -4.5669
139 1 -14.7392 -5.13523 -4.94365 -4.6079
140 1 -15.3055 -2.18195 -2.02554 -4.4773
141 1 -12.2206 -4.74191 -1.87521 -4.52277
142 1 -12.3767 -2.54941 59.299 -4.43456
143 1 -13.7337 -3.50831 -3.40918 -4.387
144 1 -13.7128 -1.0694 -0.626472 -4.43069
145 1 -10.9832 -3.46887 -0.223759 -4.51703
146 1 -11.1895 -1.18739 -3.63741 -4.39224
147 1 -9.74066 -4.57901 59.3364 -4.51489
148 1 -10.0131 -2.23693 -1.97223 -4.42729
149 1 -7.34462 -4.72892 -2.047 -4.48724
150 1 -7.20483 -2.30272 59.3045 -4.4994
151 1 -8.58208 -3.34196 -3.42646 -4.5149
152 1 -8.62749 -1.193 -0.384523 -4.47766
153 1 -6.17686 -3.66288 -0.338962 -4.47754
154 1 -5.99969 -0.995256 -3.646 -4.45476
155 1 -4.74679 -4.73644 59.1176 -4.49221
156 1 -5.08551 -2.21419 -1.82882 -4.45339
157 1 -2.71186 -4.77546 -1.82685 -4.4647
158 1 -2.2319 -2.3151 -4.8943 -4.49295
159 1 -3.82938 -3.39386 -3.53251 -4.45488
160 1 -3.61845 -1.12457 -0.269572 -4.51137
161 1 -1.37025 -3.68315 -0.288757 -4.46502
162 1 -0.923699 -1.05721 -3.25352 -4.50779
163 1 0.231645 -4.41958 -4.66679 -4.46643
164 1 0.0961523 -2.48404 -1.67728 -4.52784
165 1 2.76706 -4.82285 -1.59458 -4.51399
166 1 2.81727 -2.11194 -4.78403 -4.48964
167 1 1.6182 -3.33496 -3.09435 -4.47398
168 1 1.42962 -1.16138 -0.16835 -4.4938
169 1 4.01278 -3.65182 0.0560314 -4.49288
170 1 4.10424 -0.793549 -3.27651 -4.43656
171 1 5.26769 -4.92026 -4.79618 -4.49677
172 1 4.97218 -2.2093 -1.56273 -4.42628
173 1 7.49451 -4.79211 -1.64254 -4.55042
174 1 7.68862 -2.03669 -4.55761 -4.42837
175 1 6.28989 -3.51913 -3.16681 -4.52546
176 1 6.28145 -1.1562 0.222745 -4.47333
177 1 8.65534 -3.50413 0.0297079 -4.45011
178 1 8.93283 -0.726093 -2.92015 -4.4851
179 1 9.8015 -4.67284 -4.6798 -4.48477
180 1 10.038 -2.21617 -1.38429 -4.49245
181 1 12.5469 -4.6471 -1.60529 -4.51177
182 1 12.2742 -2.2551 -4.68627 -4.44352
183 1 11.1214 -3.53721 -3.11913 -4.48316
184 1 11.5955 -1.53911 0.30672 -4.29762
185 1 14.4214 -4.01496 -0.391999 -4.41583
186 1 13.2721 -1.20073 -2.76413 -4.47504
187 1 14.9756 -4.69784 -4.67297 -4.5806
188 1 15.0661 -2.13268 -1.56962 -4.47386
189 1 17.6437 -4.09877 -2.57553 -4.58066
190 1 17.5974 -1.86622 -5.00643 -4.61649
191 1 16.0209 -2.88065 -3.70745 -4.64103
192 1 16.2881 -1.19135 0.223381 -4.3003
193 1 18.7973 -2.23462 -1.40068 -3.68829
194 1 18.477 -0.165182 -3.48453 -3.66879
195 1 -19.0529 -1.09036 -4.09023 -4.35578
196 1 -17.961 0.342308 -0.834103 -4.2958
197 1 -17.12 2.41726 -4.79785 -4.37505
198 1 -17.704 0.641988 -3.23619 -4.46041
199 1 -17.7341 4.30311 0.833495 -4.30596
200 1 -16.0819 1.42384 -0.212104 -4.47505
201 1 -15.8316 3.84098 -3.42399 -4.24446
202 1 -14.4158 0.174725 58.919 -4.50261
203 1 -14.8802 2.05755 -2.22591 -4.45707
204 1 -12.1719 0.14989 -2.03233 -4.44445
205 1 -12.1947 2.61089 58.993 -4.41383
206 1 -13.2122 1.3467 -3.74855 -4.39865
207 1 -13.712 3.47162 -0.794452 -4.38486
208 1 -11.1535 1.58184 -0.352834 -4.50979
209 1 -11.1882 3.82131 -3.73273 -4.45547
210 1 -10.0135 0.105274 59.2782 -4.48827
211 1 -9.84688 2.65083 -2.01843 -4.41682
212 1 -7.46181 0.180005 -2.02507 -4.46904
213 1 -7.35097 2.74668 59.0752 -4.44156
214 1 -8.69948 1.42787 -3.68589 -4.4773
215 1 -8.57334 3.72994 -0.25238 -4.51551
216 1 -6.16555 1.38017 -0.401268 -4.38038
217 1 -5.99286 3.75059 -3.50165 -4.4661
218 1 -4.73843 0.256126 59.1603 -4.47273
219 1 -4.79859 2.20562 -2.05943 -4.44045
220 1 -2.32607 0.106383 -1.75049 -4.47146
221 1 -2.1848 2.7522 59.3206 -4.47299
222 1 -3.29346 1.29095 -3.6375 -4.43551
223 1 -3.72977 3.53897 -0.365482 -4.3768
224 1 -1.16957 1.40224 -0.107807 -4.4981
225 1 -1.02173 3.78877 -3.31395 -4.46696
226 1 0.187936 0.229887 -4.84342 -4.40686
227 1 0.155563 2.60573 -1.74552 -4.47418
228 1 2.66404 0.137647 -1.71251 -4.45001
229 1 2.80358 2.62107 -4.97363 -4.43222
230 1 1.65405 1.54637 -3.25753 -4.44645
231 1 1.5116 3.78863 -0.119133 -4.42903
232 1 3.72332 1.35188 -0.0176521 -4.49338
233 1 3.88059 3.87621 -3.23478 -4.49087
234 1 5.31956 0.401542 -4.82534 -4.40877
235 1 5.05126 2.68975 -1.50165 -4.47946
236 1 7.47152 0.274857 -1.33315 -4.48613
237 1 7.72832 2.90361 -4.44985 -4.43719
238 1 6.42324 1.51501 -2.99874 -4.44158
239 1 6.16722 3.7784 0.335535 -4.47248
240 1 8.90986 1.29516 0.34387 -4.43532
241 1 8.95297 4.28151 -2.8018 -4.5084
242 1 10.2436 0.582711 -4.4843 -4.42462
243 1 9.96945 2.70264 -1.32259 -4.40523
244 1 12.2788 0.201955 -1.13555 -4.38723
245 1 12.4673 3.42973 -4.28767 -4.77856
246 1 11.5219 1.79922 -2.81111 -4.25008
247 1 10.8474 3.77617 0.753805 -4.37775
248 1 13.4809 1.34879 0.672965 -4.52865
249 1 13.7619 4.21696 -2.24573 -4.41075
250 1 14.5024 0.18995 -4.2235 -4.42223
251 1 14.6716 2.61594 -0.914025 -4.40072
252 1 17.6835 0.00663431 -1.27133 -4.92321
253 1 16.3673 2.84962 -3.97037 -4.34993
254 1 15.7292 1.15964 -2.44187 -4.32496
255 1 16.3829 4.13929 -0.1065 -4.95047
256 1 19.1216 1.18797 0.421908 -4.19858
257 1 18.1266 4.36743 -4.21544 -4.37645
258 1 18.5205 1.94315 -4.69425 -4.29998
259 1 -17.2176 4.77508 -1.597 -4.06392
260 1 -16.918 7.92005 57.652 -4.33211
261 1 -17.1945 6.52105 -4.84697 -4.04093
262 1 -16.3987 6.87679 -0.93916 -4.29303
263 1 -16.4019 8.78556 -4.38863 -4.11874
264 1 -15.3476 4.98073 58.9759 -5.31748
265 1 -15.0363 7.77836 -2.77865 -4.46534
266 1 -12.6861 4.94981 -2.32501 -4.51669
267 1 -12.3451 7.39007 58.7731 -4.53762
268 1 -13.8856 6.2927 -4.0239 -4.25536
269 1 -13.4621 8.68236 -1.4115 -4.45862
270 1 -11.0821 6.10229 -0.83763 -4.49274
271 1 -10.8534 8.52676 -4.33456 -4.53526
272 1 -10.0015 5.05888 58.9682 -4.42638
273 1 -9.84397 7.36654 -2.47987 -4.54903
274 1 -7.31535 5.05534 -1.87698 -4.41112
275 1 -7.16027 7.31446 59.0415 -4.50323
276 1 -8.50305 5.98599 -3.8495 -4.49103
277 1 -8.33033 8.45791 -1.06347 -4.43477
278 1 -5.88157 6.16018 -0.36489 -4.57403
279 1 -5.85089 8.43346 -3.76098 -4.48073
280 1 -4.7668 5.01806 59.2979 -4.3902
281 1 -4.65304 7.47204 -1.92254 -4.46515
282 1 -2.4449 4.95791 -1.75273 -4.51976
283 1 -2.47119 7.39827 59.2444 -4.48377
284 1 -3.54914 6.12568 -3.47092 -4.416
285 1 -3.36582 8.63381 -0.331584 -4.52692
286 1 -1.02985 6.02314 -0.19026 -4.42929
287 1 -0.980086 8.64342 -3.65857 -4.45433
288 1 0.31073 5.29557 -4.78926 -4.4615
289 1 0.0234097 7.51819 -1.80521 -4.42914
290 1 2.65953 5.21956 -1.73655 -4.40827
291 1 3.01485 8.08853 -4.70492 -4.22168
292 1 1.59619 6.73556 -3.35504 -4.52099
293 1 1.37973 8.71365 -0.153553 -4.4467
294 1 3.7489 6.12676 0.160685 -4.48371
295 1 4.14259 8.95793 -2.67335 -4.55793
296 1 5.26176 5.37779 -4.64753 -4.27863
297 1 5.03038 7.70978 -0.964036 -4.62184
298 1 7.45808 5.12185 -1.05317 -4.57487
299 1 8.58045 8.64205 58.3501 -4.07525
300 1 6.41587 6.64207 -2.57983 -4.42798
301 1 6.38325 8.94798 0.500826 -4.42681
302 1 8.68838 6.44012 0.529457 -4.3242
303 1 8.17554 8.30338 -3.23421 -4.06368
304 1 9.98491 5.83702 -4.32926 -3.77708
305 1 9.68345 7.65279 -1.43765 -4.41367
306 1 11.9769 5.07836 -0.832193 -4.54875
307 1 12.4101 7.76396 57.946 -4.62209
308 1 11.325 6.58074 -2.54168 -4.51446
309 1 11.2921 8.87174 1.75327 -4.42436
310 1 13.4847 6.04704 0.711675 -4.63417
311 1 12.297 9.99821 58.7486 -4.10749
312 1 13.9406 4.9969 58.9631 -4.35753
313 1 14.5665 7.40139 -0.825204 -4.20415
314 1 17.3755 5.18563 -2.06294 -3.70362
315 1 15.5314 6.78534 59.165 -4.20329
316 1 15.2524 6.04515 -2.66931 -4.46979
317 1 15.6068 8.20688 1.72031 -4.05859
318 1 18.1647 5.58813 0.768796 -3.7108
319 1 -14.9866 12.7729 0.0153886 -4.16466
320 1 -14.7901 10.1814 59.0584 -4.54996
321 1 -14.3476 13.1957 -2.3013 -4.16742
322 1 -12.0452 9.84865 -2.8872 -4.63799
323 1 -12.451 12.5753 58.8597 -4.72758
324 1 -13.4967 11.527 -3.77763 -4.46132
325 1 -12.8986 13.9881 -0.591386 -4.8716
326 1 -10.2991 10.9029 -1.68208 -4.45433
327 1 -11.294 14.1547 -4.226 -4.55614
328 1 -9.5349 9.99212 58.7254 -4.6372
329 1 -9.69508 12.6309 -3.18177 -4.48792
330 1 -7.38807 9.85844 -2.52235 -4.47688
331 1 -7.01016 12.6722 58.5417 -4.57346
332 1 -8.12089 11.2385 -4.3613 -4.50379
333 1 -8.40538 13.68 -1.58577 -4.46318
334 1 -5.55704 10.9343 -1.36891 -4.45462
335 1 -5.57213 14.0796 -4.73027 -4.48546
336 1 -4.70639 9.9352 58.9869 -4.48386
337 1 -4.70279 12.7375 -2.86724 -4.46164
338 1 -2.41244 9.99391 -2.10089 -4.40271
339 1 -2.05058 12.4204 58.797 -4.57196
340 1 -3.365 11.2972 -4.05519 -4.54911
341 1 -3.10449 13.5424 -1.30596 -4.389
342 1 -0.837349 11.044 -0.586179 -4.47027
343 1 -0.732911 13.6897 -4.18128 -4.52886
344 1 0.251494 9.90639 59.1863 -4.51254
345 1 0.178914 12.3721 -2.36177 -4.47307
346 1 2.53107 10.1611 -1.46611 -4.48137
347 1 2.9674 12.3199 58.9865 -4.30456
348 1 1.66973 10.9898 -3.70099 -4.31471
349 1 1.42123 13.456 -0.69342 -4.46773
350 1 3.76025 11.3231 0.196502 -4.51071
351 1 4.20574 13.478 -3.61299 -4.25381
352 1 6.11741 10.9235 58.6648 -4.10361
353 1 5.07245 12.591 -1.46146 -3.89095
354 1 7.31412 9.75765 -1.63023 -4.55387
355 1 7.3064 12.5783 57.5911 -4.55099
356 1 5.70354 10.7562 -2.9273 -4.25676
357 1 5.89976 13.957 0.935615 -4.17587
358 1 8.37557 11.5536 1.50167 -4.61095
359 1 8.75302 14.1852 58.7569 -4.44676
360 1 10.2996 10.022 57.1764 -4.81831
361 1 8.36448 11.8475 -0.893482 -4.38052
362 1 10.9187 9.41086 -0.43236 -4.96441
363 1 12.0934 11.6081 56.9095 -4.50045
364 1 10.2995 11.3267 -1.88128 -4.32552
365 1 10.0816 13.2501 1.71929 -4.58465
366 1 12.909 10.4601 1.91316 -4.56717
367 1 12.1378 12.4219 -0.762474 -3.6622
368 1 14.2393 10.5984 57.6364 -4.23799
369 1 13.1009 10.3141 -0.4154 -4.35399
370 1 12.7258 8.46263 -1.89365 -4.23202
371 1 -13.0276 15.0005 -2.69412 -3.90333
372 1 -11.7618 16.0752 -0.346988 -3.93742
373 1 -8.96895 15.5261 58.4647 -4.52207
374 1 -7.28192 15.022 -3.32982 -4.55174
375 1 -7.7613 17.4675 57.8682 -4.3718
376 1 -8.45748 16.8351 -4.07858 -4.35158
377 1 -5.89731 15.8357 -1.66804 -4.71688
378 1 -6.56846 18.1061 -4.48771 -3.62364
379 1 -4.50694 15.5379 58.2948 -4.44558
380 1 -4.94817 17.4901 -2.90464 -4.54957
381 1 -2.31375 14.9974 -2.88437 -4.43524
382 1 -1.82394 17.7857 58.6688 -4.2761
383 1 -3.31642 16.5061 -4.38072 -4.44588
384 1 -4.60446 18.715 -0.614697 -3.94942
385 1 -1.54685 16.2635 -1.05781 -4.53776
386 1 -0.34552 18.9549 -4.09981 -4.35423
387 1 0.764121 14.9918 58.9673 -4.30736
388 1 0.117838 17.6086 -2.15482 -4.50842
389 1 2.72578 14.7684 -2.11396 -4.28336
390 1 3.20863 17.8332 -3.47485 -4.27044
391 1 1.43349 16.3148 -3.48822 -4.93125
392 1 1.2159 18.6184 -0.318722 -4.59975
393 1 3.46958 15.8094 -0.0506642 -4.51528
394 1 3.1272 19.1909 -1.53253 -4.30372
395 1 5.16783 14.4683 58.7827 -3.48345
396 1 4.72163 17.8392 -0.402453 -4.55282
397 1 8.42984 17.5376 -5.16341 -4.34014
398 1 9.39396 18.0778 57.1506 -4.33319
399 1 7.03129 15.6632 59.3192 -4.4801
400 1 4.10895 18.6089 1.65986 -3.71858
401 1 7.15362 15.8684 1.56828 -4.53446
402 1 9.38733 14.7956 56.6166 -4.61751
403 1 10.0672 13.5323 -0.61913 -4.42528
404 1 10.1834 16.1854 58.2931 -4.4716
405 1 1.91616 19.8081 -3.59435 -4.17013
406 1 -12.087 -15.6901 1.03245 -4.38219
407 1 -7.3622 -17.3466 0.979568 -3.73004
408 1 -8.60708 -15.6472 5.76599 -3.63029
409 1 -5.90374 -18.2377 6.42919 -4.01147
410 1 -6.00386 -16.2482 2.50515 -4.56227
411 1 -4.8644 -17.5062 4.19769 -4.43007
412 1 -2.63017 -17.7915 0.893616 -4.00183
413 1 -2.81722 -18.4724 3.32098 -3.9669
414 1 -3.34506 -16.1491 5.41686 -4.4978
415 1 -1.3975 -18.9497 5.29522 -4.04131
416 1 -1.14274 -16.6377 2.52598 -5.27895
417 1 0.914734 -20.0608 -1.61755 -4.17924
418 1 0.242141 -17.7998 4.1294 -4.1354
419 1 2.39711 -17.7443 0.680323 -4.47794
420 1 0.398204 -18.3848 1.71835 -4.13662
421 1 0.993708 -15.8067 5.42592 -4.47088
422 1 4.03221 -18.4049 5.76517 -4.28561
423 1 3.59089 -16.4535 2.34603 -4.55397
424 1 5.29178 -17.5631 3.60338 -4.37678
425 1 7.84953 -17.5622 0.292534 -4.41544
426 1 7.57004 -17.4157 2.8893 -4.13095
427 1 5.84289 -15.9416 5.08745 -4.70561
428 1 8.58372 -15.7974 1.6236 -4.38952
429 1 12.1986 -14.7369 7.52381 -4.12867
430 1 -16.865 -9.56376 2.7818 -4.31661
431 1 -15.6074 -11.6683 3.07681 -4.18813
432 1 -12.8503 -14.1845 2.6648 -4.38276
433 1 -12.3916 -12.3287 1.3064 -4.39094
434 1 -14.6533 -13.2296 1.42135 -4.26017
435 1 -14.1282 -11.1855 4.90305 -4.96855
436 1 -11.366 -14.0975 4.73262 -4.3787
437 1 -11.0823 -11.1872 2.88746 -4.54562
438 1 -9.69649 -15.2459 0.978761 -4.23072
439 1 -9.7016 -12.5497 4.30067 -4.5609
440 1 -7.2657 -14.8365 4.00852 -4.62591
441 1 -7.25628 -12.4143 1.07465 -4.55588
442 1 -8.67232 -13.6665 2.50542 -4.53738
443 1 -8.98389 -11.0934 6.004 -4.36024
444 1 -6.14449 -13.2404 5.54388 -4.47984
445 1 -6.24613 -11.0601 2.84209 -4.47682
446 1 -4.66898 -15.0777 0.974238 -4.47869
447 1 -4.64019 -12.2198 4.17618 -4.50423
448 1 -2.01037 -14.7894 4.10026 -4.23066
449 1 -2.20398 -12.2525 1.03985 -4.46949
450 1 -3.42273 -13.5752 2.57882 -4.4992
451 1 -3.71321 -10.9848 5.97779 -4.45302
452 1 -1.39047 -13.3256 5.80742 -4.5318
453 1 -1.02541 -10.9458 2.89416 -4.4346
454 1 -0.0330446 -14.9137 1.13268 -4.23805
455 1 0.207225 -12.2538 4.45302 -4.42056
456 1 2.48757 -14.9024 3.80416 -4.54718
457 1 2.65126 -12.4448 1.17642 -4.49685
458 1 1.13376 -13.4669 2.60938 -4.51307
459 1 1.39898 -11.1961 6.428 -4.21141
460 1 4.20935 -14.2883 5.45166 -4.48978
461 1 3.70263 -11.238 3.01134 -4.43374
462 1 5.00005 -14.9746 1.10895 -4.55768
463 1 5.27 -12.4813 4.32236 -4.55286
464 1 7.6429 -15.1911 3.75547 -4.45
465 1 7.70875 -12.3266 1.20896 -4.39302
466 1 6.35112 -13.6437 2.57115 -4.61044
467 1 6.28537 -11.2247 6.19462 -4.29017
468 1 9.07049 -13.3153 6.75139 -3.64934
469 1 9.01888 -11.0699 3.07172 -4.36558
470 1 10.9365 -15.6833 1.67862 -3.67365
471 1 10.0634 -12.5139 4.72714 -4.63805
472 1 12.0455 -13.9875 4.75409 -4.23168
473 1 13.0109 -12.308 1.00605 -4.48503
474 1 12.4241 -14.0923 2.47171 -4.03434
475 1 11.2662 -11.0147 5.98163 -4.49793
476 1 12.4144 -12.3868 7.44935 -4.67082
477 1 13.9012 -11.0186 2.79097 -4.44347
478 1 13.9223 -12.6406 4.54272 -3.78877
479 1 14.6519 -12.1554 6.92454 -4.38286
480 1 -17.09 -7.77353 1.15358 -4.30267
481 1 -18.4009 -4.80623 7.20837 -4.26324
482 1 -16.3266 -8.79514 5.06671 -4.2951
483 1 -15.8148 -6.53031 2.67623 -4.64142
484 1 -14.8358 -9.88546 1.68825 -4.52416
485 1 -14.5761 -7.47828 4.49553 -4.59032
486 1 -12.2046 -9.93579 4.51335 -4.33304
487 1 -11.9351 -7.55703 1.28602 -4.41636
488 1 -13.305 -8.61269 2.94429 -4.6009
489 1 -13.1174 -6.05186 5.91225 -4.45518
490 1 -11.3702 -8.76268 6.49587 -4.24742
491 1 -10.8272 -6.18254 2.80019 -4.45265
492 1 -9.65206 -10.0748 1.25336 -4.42516
493 1 -10.082 -7.48167 4.61576 -4.35267
494 1 -7.55886 -9.99414 4.50255 -4.51911
495 1 -7.43925 -7.5469 1.2847 -4.44725
496 1 -8.70948 -8.5756 3.04285 -4.40883
497 1 -8.74024 -6.04764 5.83916 -4.54104
498 1 -6.31371 -8.82675 6.07954 -4.55207
499 1 -6.05258 -6.24412 2.76102 -4.48933
500 1 -4.76927 -9.85521 1.24768 -4.44943
501 1 -5.05874 -7.41033 4.56241 -4.48939
502 1 -2.28509 -9.76394 4.45583 -4.48113
503 1 -2.41583 -7.53372 1.30969 -4.42862
504 1 -3.84152 -8.66277 2.98133 -4.44768
505 1 -3.66634 -6.04318 6.02935 -4.51017
506 1 -1.24329 -8.68004 6.31649 -4.47192
507 1 -1.18045 -6.08744 2.97531 -4.40936
508 1 0.289219 -9.78481 1.39354 -4.45078
509 1 0.0380694 -7.37193 4.79127 -4.46935
510 1 2.59808 -10.0733 4.63907 -4.39109
511 1 2.67879 -7.28171 1.56947 -4.41654
512 1 1.35002 -8.63013 3.22532 -4.44231
513 1 1.26942 -6.03344 6.3447 -4.53978
514 1 3.64448 -8.72629 6.37376 -4.42285
515 1 3.91184 -5.9431 3.26663 -4.46412
516 1 5.08803 -9.9464 1.50438 -4.489
517 1 4.80751 -7.47878 4.79214 -4.46791
518 1 7.4811 -10.0328 4.56461 -4.52344
519 1 7.47122 -7.23434 1.51538 -4.48822
520 1 6.29872 -8.51777 3.14166 -4.50421
521 1 6.16018 -6.33199 6.46122 -4.52039
522 1 8.61034 -8.67163 6.2001 -4.50131
523 1 8.76709 -5.96516 3.03909 -4.40403
524 1 10.1366 -9.5818 1.61871 -4.50138
525 1 9.89742 -7.12274 4.84091 -4.44781
526 1 12.5603 -9.77955 4.38364 -4.50506
527 1 12.4306 -6.82653 1.77826 -4.43653
528 1 11.1919 -8.2565 3.23195 -4.55763
529 1 11.0596 -6.05274 6.71717 -4.55421
530 1 13.6148 -8.58458 6.16922 -4.48601
531 1 13.7485 -5.87354 3.60529 -4.40011
532 1 15.15 -9.63041 1.23041 -4.08014
533 1 15.1379 -7.41344 4.83436 -4.58958
534 1 16.4152 -5.65742 1.52012 -4.44932
535 1 15.9941 -7.80273 2.58303 -3.60733
536 1 16.3869 -6.09153 6.49238 -3.95113
537 1 17.8716 -4.25434 2.53734 -4.39697
538 1 -17.112 -5.14083 4.04432 -4.58154
539 1 -16.809 -2.91124 0.864028 -4.25703
540 1 -18.3288 -4.15379 2.11683 -4.39129
541 1 -18.6367 -2.00599 3.29229 -3.88928
542 1 -16.0194 -3.4838 5.3562 -4.59517
543 1 -16.5288 -1.01422 2.73634 -5.24041
544 1 -14.4871 -5.32961 1.13957 -4.48325
545 1 -14.7464 -2.07024 4.0944 -4.24844
546 1 -12.0485 -4.80063 4.1786 -4.48034
547 1 -12.3918 -2.23358 1.2216 -4.51725
548 1 -13.5412 -3.65676 2.68215 -4.50637
549 1 -13.4309 -1.24327 5.98631 -4.37203
550 1 -11.0433 -3.50448 5.87378 -4.42967
551 1 -11.1087 -1.0142 2.67516 -4.51524
552 1 -9.60352 -4.68706 1.24949 -4.50783
553 1 -9.77989 -2.34708 4.304 -4.36362
554 1 -7.31531 -5.02579 4.2903 -4.48382
555 1 -7.20983 -2.26333 1.27354 -4.47481
556 1 -8.39431 -3.4597 2.86371 -4.56205
557 1 -8.55464 -0.943004 6.11336 -4.42651
558 1 -6.44067 -3.45812 5.97133 -4.43578
559 1 -6.06909 -0.858954 2.77831 -4.48184
560 1 -4.90949 -4.93194 1.11891 -4.47138
561 1 -4.97801 -2.24437 4.45095 -4.51446
562 1 -2.43317 -4.68758 4.50027 -4.51613
563 1 -2.59882 -2.43131 1.40647 -4.48055
564 1 -3.87148 -3.69753 2.94133 -4.49096
565 1 -3.70958 -1.03977 6.11444 -4.50306
566 1 -1.24833 -3.48928 6.21853 -4.48695
567 1 -1.52905 -1.08209 3.02164 -4.45016
568 1 -0.0610771 -4.80298 1.35376 -4.47832
569 1 0.028913 -2.31754 4.4937 -4.5005
570 1 2.62138 -4.85389 4.89754 -4.43777
571 1 2.48396 -2.55088 1.50824 -4.53811
572 1 1.20527 -3.81183 3.13187 -4.43164
573 1 1.11866 -1.13954 6.24192 -4.41459
574 1 3.78645 -3.54959 6.54284 -4.54237
575 1 3.46425 -1.10794 3.03554 -4.44936
576 1 5.29881 -4.84528 1.69447 -4.3574
577 1 4.74332 -2.23761 4.88824 -4.41898
578 1 7.40909 -5.09257 4.93629 -4.4481
579 1 7.55221 -2.55067 1.88632 -4.37769
580 1 6.24998 -3.62764 3.55839 -4.48093
581 1 6.0011 -1.07448 6.41926 -4.43139
582 1 8.32208 -3.69438 6.61236 -4.54223
583 1 8.65782 -1.14719 3.48434 -4.42984
584 1 10.1401 -4.58829 1.59016 -4.3941
585 1 9.82002 -2.30522 5.21708 -4.5193
586 1 12.4484 -4.78777 5.3078 -4.55333
587 1 12.8439 -2.47583 2.36717 -4.30046
588 1 11.2111 -3.56136 3.64288 -4.47533
589 1 11.063 -1.18851 6.88344 -4.54885
590 1 13.5782 -3.35162 6.74579 -4.49947
591 1 13.7639 -0.8391 3.78252 -4.54528
592 1 14.6148 -4.19798 2.18126 -4.96183
593 1 14.9634 -2.03763 5.44766 -4.50738
594 1 17.2441 -4.63379 4.84337 -3.55912
595 1 18.3041 -2.32979 1.03129 -4.33231
596 1 16.206 -2.90963 3.54131 -4.43434
597 1 16.3688 -0.297259 6.38228 -4.3161
598 1 18.3253 -1.00322 7.28842 -4.45011
599 1 18.9521 -0.256259 2.28162 -4.26022
600 1 -18.5972 -0.104951 1.70102 -3.93157
601 1 -17.0176 0.381856 4.6611 -4.47236
602 1 -16.7833 2.51008 1.77735 -4.57681
603 1 -18.3423 1.75926 3.18497 -4.50808
604 1 -17.716 3.46949 4.75611 -4.43138
605 1 -15.5356 1.47062 6.11609 -4.5845
606 1 -15.8614 4.12406 3.31578 -4.53562
607 1 -15.0271 -0.110105 1.06707 -4.28444
608 1 -14.4246 2.55185 4.26355 -4.42743
609 1 -12.3938 0.141126 4.36418 -4.44263
610 1 -12.621 2.74158 1.14348 -4.39628
611 1 -13.656 1.08481 2.66772 -4.38751
612 1 -13.3191 3.9082 5.73406 -4.48226
613 1 -11.1353 1.38919 5.89953 -4.47429
614 1 -11.2787 3.90747 2.79859 -4.42005
615 1 -9.87844 0.263528 1.16043 -4.52159
616 1 -9.93107 2.7509 4.24682 -4.45176
617 1 -7.30044 0.326907 4.52375 -4.41105
618 1 -7.28031 2.52837 1.33198 -4.44244
619 1 -8.71178 1.38493 2.86861 -4.49926
620 1 -8.75727 3.92399 5.9398 -4.49472
621 1 -6.21757 1.4043 6.24716 -4.51942
622 1 -6.25846 3.84495 2.9983 -4.48381
623 1 -4.74745 0.41719 1.20129 -4.47774
624 1 -4.9823 2.83948 4.73537 -4.46305
625 1 -2.35616 0.345272 4.7037 -4.44189
626 1 -2.41086 2.64631 1.52981 -4.40846
627 1 -3.6883 1.54444 3.03443 -4.38442
628 1 -3.78519 4.07021 6.39252 -4.52599
629 1 -1.23317 1.50763 6.32768 -4.44714
630 1 -1.27685 3.95432 3.09784 -4.42922
631 1 0.0038083 0.00522577 1.43559 -4.51851
632 1 -0.0180795 2.73381 4.65072 -4.50957
633 1 2.28764 0.0872212 4.72453 -4.41395
634 1 2.60059 2.59216 1.66115 -4.44619
635 1 1.10832 1.26448 3.1231 -4.51092
636 1 1.22506 3.89886 6.27364 -4.42049
637 1 3.47592 1.39968 6.46075 -4.49525
638 1 3.71912 3.86976 3.33232 -4.56978
639 1 4.93418 0.218248 1.64075 -4.54127
640 1 4.90833 2.62166 5.04669 -4.47377
641 1 7.37998 0.0793681 5.07393 -4.45351
642 1 7.56385 2.50777 1.89586 -4.49133
643 1 6.20965 1.28735 3.37084 -4.47259
644 1 6.01453 3.96127 6.70146 -4.50346
645 1 8.49815 1.5304 6.60646 -4.53121
646 1 8.40548 3.95875 3.64403 -4.47959
647 1 10.2948 -0.251003 1.78155 -4.36469
648 1 9.84876 2.77895 5.12128 -4.48726
649 1 12.2619 0.193298 5.34416 -4.52822
650 1 12.303 2.59588 2.21816 -4.57838
651 1 11.0365 1.1818 3.63283 -4.46403
652 1 11.0054 3.87738 6.974 -4.43194
653 1 13.5338 1.55949 6.80238 -4.51346
654 1 13.7499 3.78938 3.56925 -4.42841
655 1 14.9985 -0.0590254 1.8758 -4.45644
656 1 14.9558 2.4923 5.22422 -4.41457
657 1 17.54 0.0792984 4.19046 -4.55305
658 1 17.1343 2.24796 1.2451 -4.51655
659 1 16.0074 1.49709 3.25553 -4.50545
660 1 16.2196 4.03591 6.52609 -4.31614
661 1 18.8189 1.83577 4.96934 -4.40019
662 1 18.6704 3.72117 2.24478 -4.5903
663 1 19.9107 1.77881 2.74674 -4.16404
664 1 -18.0006 5.89238 4.8632 -4.48501
665 1 -16.1517 7.63194 1.34041 -4.58011
666 1 -17.2594 5.96919 2.55361 -4.28442
667 1 -15.9584 6.49807 5.79543 -4.58015
668 1 -15.1936 9.72541 1.9491 -3.68143
669 1 -15.4882 4.8195 -0.0396167 -4.84878
670 1 -14.4395 6.87301 3.89512 -4.29893
671 1 -12.4203 5.53129 4.27346 -4.51581
672 1 -12.5789 7.46909 0.399944 -4.54354
673 1 -14.2762 6.3238 1.53886 -4.34836
674 1 -13.311 8.53508 5.142 -4.35994
675 1 -10.9998 6.37823 5.84804 -4.42921
676 1 -11.078 8.4649 2.06234 -4.22089
677 1 -9.98679 5.0105 1.11514 -4.46648
678 1 -10.0055 7.56368 3.94869 -4.53038
679 1 -7.43337 5.25385 4.4824 -4.5052
680 1 -7.31708 7.51581 0.926718 -4.49629
681 1 -8.50006 6.2956 2.65763 -4.4871
682 1 -8.72087 9.17005 5.12149 -4.33821
683 1 -6.17012 6.61451 6.06728 -4.49948
684 1 -5.61784 8.56969 2.27513 -4.44147
685 1 -4.85013 5.01946 1.43015 -4.36932
686 1 -4.91744 7.65025 4.33534 -4.33987
687 1 -2.39075 5.17068 4.74387 -4.42361
688 1 -2.09101 7.49353 1.38927 -4.42193
689 1 -3.51068 6.32801 3.03245 -4.48429
690 1 -3.85605 9.06956 6.05922 -4.27783
691 1 -1.30142 6.37088 6.46874 -4.50573
692 1 -1.19079 8.81267 3.22932 -4.45524
693 1 0.223265 4.85377 1.58024 -4.44577
694 1 -0.0334947 7.452 4.76369 -4.40662
695 1 2.38311 5.14231 4.73617 -4.36536
696 1 2.60416 7.59723 1.60811 -4.44679
697 1 1.30132 6.27856 3.09703 -4.48136
698 1 0.910245 8.74197 6.37769 -4.44933
699 1 3.58629 6.48086 6.64554 -4.3995
700 1 3.64475 8.74509 3.52513 -4.35665
701 1 5.08124 5.2253 1.93049 -4.45562
702 1 4.93369 7.80555 5.20529 -4.49178
703 1 7.37121 5.18782 5.43257 -4.42223
704 1 7.52444 7.67437 2.21731 -4.38864
705 1 6.16103 6.50966 3.72495 -4.43596
706 1 6.11961 8.98916 6.95012 -4.42914
707 1 8.53422 6.42449 7.03924 -4.46999
708 1 8.54952 8.70802 4.08375 -4.61037
709 1 9.63063 5.30227 2.32615 -4.37041
710 1 10.0059 7.65898 5.57226 -4.39419
711 1 12.491 4.88112 5.35102 -4.40055
712 1 12.5439 7.09199 2.65169 -4.43684
713 1 10.9952 6.04814 4.05847 -4.58217
714 1 11.6375 9.16342 8.31667 -4.50658
715 1 13.3647 6.19534 7.14669 -4.32172
716 1 13.2863 8.23334 4.59177 -4.26057
717 1 15.1572 4.85941 1.87227 -4.37774
718 1 14.9197 7.88349 6.30578 -4.76253
719 1 17.6957 3.90614 4.51806 -4.26271
720 1 17.6826 7.27114 2.27842 -4.46768
721 1 15.7302 6.53719 3.39949 -4.53673
722 1 16.4153 9.30145 7.58806 -4.07338
723 1 17.7882 6.38382 4.64384 -4.20732
724 1 -14.4946 11.1475 3.70197 -4.31501
725 1 -14.3284 10.4655 -0.142275 -4.706
726 1 -13.9674 12.7222 2.13384 -4.50263
727 1 -12.4125 9.87079 3.39364 -4.93683
728 1 -11.2655 12.4645 -0.207378 -4.12706
729 1 -12.5307 11.127 1.22847 -4.56376
730 1 -12.2022 13.791 3.21292 -4.11945
731 1 -10.502 10.7582 4.69702 -4.39683
732 1 -10.2855 13.8045 1.71682 -5.38191
733 1 -9.81203 9.64439 0.307781 -4.49011
734 1 -9.55418 11.8031 2.77283 -4.34224
735 1 -7.15299 9.83384 3.42072 -4.52308
736 1 -7.09484 12.2363 -0.183124 -4.5194
737 1 -8.05755 10.7768 1.40865 -4.5554
738 1 -8.11456 12.8082 4.3895 -4.55429
739 1 -6.17449 11.6152 4.58667 -4.44932
740 1 -5.82767 13.6941 1.10251 -4.60435