ITEM: TIMESTEP
156000
ITEM: NUMBER OF ATOMS
4050
ITEM: BOX BOUNDS ss ss pp
-2.0804632018395125e+01 2.0919249926082095e+01
-2.0722853808648232e+01 2.0659863635430916e+01
-2.1180900000000005e+00 5.6428090000000005e+01
ITEM: ATOMS id type x y z c_peratom
1 1 -12.1702 -15.79 -0.251273 -4.15563
2 1 -7.61764 -18.3648 -1.52741 -4.401
3 1 -9.15589 -17.5182 1.71517 -4.53461
4 1 -7.20942 -19.0364 1.54009 -3.69092
5 1 -6.28254 -16.7062 -0.647454 -4.69385
6 1 -5.19667 -18.314 0.488679 -4.60659
7 1 -2.88989 -18.6612 -1.91069 -4.53035
8 1 -5.14364 -19.5885 -1.53818 -4.10267
9 1 -3.97175 -17.2348 2.32763 -4.44376
10 1 -0.780765 -19.3075 2.48488 -4.45774
11 1 -1.75923 -16.7802 -0.84363 -4.44394
12 1 0.170818 -19.8618 -0.689715 -4.64065
13 1 -0.32097 -17.9159 0.623078 -4.61566
14 1 3.16102 -17.9834 55.9198 -4.6552
15 1 2.48115 -19.5101 -1.09295 -3.79455
16 1 1.5564 -16.9269 1.68939 -4.57829
17 1 3.28932 -19.5976 1.17301 -4.32286
18 1 4.08004 -16.583 -1.0098 -4.72559
19 1 5.28237 -18.1987 0.126614 -4.35769
20 1 7.04613 -18.2936 -1.55253 -4.11603
21 1 9.80883 -17.6192 1.34531 -3.8232
22 1 6.49623 -17.0743 1.92283 -4.59524
23 1 8.83419 -16.8196 -0.641191 -4.47622
24 1 11.597 -16.3188 1.99419 -3.76771
25 1 -14.8191 -12.7712 0.179691 -4.1271
26 1 -15.2153 -14.687 1.50982 -4.12784
27 1 -13.4372 -16.2043 1.65414 -4.26181
28 1 -12.4074 -13.4182 56.0683 -4.52077
29 1 -13.9526 -14.5495 -1.09636 -4.17588
30 1 -14.2173 -11.7033 2.19325 -4.67588
31 1 -11.5526 -14.5906 1.7787 -5.31451
32 1 -11.8765 -11.8938 -0.774288 -4.53295
33 1 -10.3308 -15.9729 56.6369 -4.43903
34 1 -10.2703 -13.006 0.537012 -4.34431
35 1 -7.89477 -15.8006 0.768312 -4.63582
36 1 -7.57285 -13.273 56.308 -4.54143
37 1 -9.03777 -14.4 -0.836241 -4.62183
38 1 -9.03646 -11.7855 2.1625 -4.52917
39 1 -6.54736 -14.603 2.30392 -4.60188
40 1 -6.59728 -11.7632 -0.664659 -4.52096
41 1 -4.91586 -15.5816 56.4264 -4.55292
42 1 -5.33631 -13.1356 0.864741 -4.58204
43 1 -2.64812 -15.7584 1.00966 -4.56497
44 1 -2.40453 -13.1498 56.5183 -4.50928
45 1 -3.87924 -14.3413 -0.441502 -4.57216
46 1 -3.90526 -11.9376 2.29341 -4.60052
47 1 -1.20889 -14.2576 2.11274 -4.56495
48 1 -1.2791 -11.6255 -0.741098 -4.61546
49 1 0.0764172 -15.9729 56.4066 -4.50743
50 1 0.0816366 -12.9631 0.624641 -4.59605
51 1 2.75069 -15.3102 0.455182 -4.55427
52 1 2.90981 -12.9455 56.1244 -4.48063
53 1 1.33368 -14.1547 -1.01462 -4.55715
54 1 1.3394 -11.5538 2.18386 -4.54256
55 1 3.96814 -14.1935 1.97284 -4.56506
56 1 4.07658 -11.5499 -1.00139 -4.52161
57 1 5.36328 -15.3403 55.9911 -4.41318
58 1 5.32034 -12.8135 0.655566 -4.55209
59 1 7.74635 -15.4755 0.77543 -4.59356
60 1 7.74355 -13.1706 56.281 -4.5466
61 1 6.45132 -14.3976 -0.749129 -4.45128
62 1 6.47148 -11.5834 2.23625 -4.59505
63 1 9.09787 -14.2546 2.24834 -4.57263
64 1 8.74647 -11.848 -0.590981 -4.46974
65 1 10.4896 -15.6959 56.4676 -4.38722
66 1 10.2011 -12.5345 1.07007 -4.50267
67 1 12.935 -15.1521 0.340831 -4.54837
68 1 12.6316 -12.3632 -1.53396 -4.23215
69 1 11.1983 -13.9482 -0.420975 -4.63244
70 1 11.8185 -11.4214 2.49354 -4.60149
71 1 14.3371 -13.5909 1.42053 -4.00984
72 1 14.26 -11.4202 -0.00813225 -5.36669
73 1 16.1934 -13.004 -0.037415 -4.07976
74 1 16.452 -10.9564 1.13075 -4.11501
75 1 -17.8536 -7.52605 55.5962 -4.23619
76 1 -19.2233 -5.73527 3.17138 -3.59466
77 1 -17.0309 -8.41451 2.69295 -3.64977
78 1 -17.2927 -6.45154 -0.726456 -4.23997
79 1 -15.3217 -10.76 -1.85973 -3.99507
80 1 -15.8236 -7.85812 0.749827 -4.51645
81 1 -12.746 -10.3632 0.8568 -4.45314
82 1 -13.0198 -7.86467 -2.10145 -4.59718
83 1 -14.2693 -9.16594 -0.498764 -4.62932
84 1 -14.3446 -6.647 2.14905 -4.53304
85 1 -11.5201 -9.11777 2.41534 -4.57531
86 1 -11.7203 -6.548 -0.660919 -4.54833
87 1 -10.4856 -10.4253 -2.04272 -4.60285
88 1 -10.4226 -7.73886 0.987118 -4.57599
89 1 -7.78284 -10.4438 0.723881 -4.52765
90 1 -7.87194 -7.95741 56.4085 -4.54333
91 1 -9.20941 -9.07965 -0.587748 -4.58749
92 1 -8.83747 -6.58821 2.39485 -4.56094
93 1 -6.61349 -9.23748 2.24745 -4.514
94 1 -6.53733 -6.64057 -0.7602 -4.5898
95 1 -5.26997 -10.4781 56.3466 -4.57531
96 1 -5.29885 -7.86116 0.94011 -4.60969
97 1 -2.61714 -10.4572 0.85524 -4.60335
98 1 -2.68394 -7.92621 56.3135 -4.57717
99 1 -3.95016 -9.19266 -0.582919 -4.56379
100 1 -3.86289 -6.52144 2.2142 -4.56114
101 1 -1.22946 -8.94692 2.12682 -4.54012
102 1 -1.33389 -6.50267 -0.826055 -4.60385
103 1 0.127913 -10.4416 56.2818 -4.60897
104 1 0.107275 -7.90867 0.411947 -4.52383
105 1 2.63102 -10.5011 0.579725 -4.49453
106 1 2.74868 -7.50576 56.2302 -4.57118
107 1 1.5424 -9.04248 -0.97636 -4.5901
108 1 1.14944 -6.63585 2.0853 -4.56667
109 1 3.78621 -9.22314 2.14135 -4.59134
110 1 3.84655 -6.24625 -0.603185 -4.51919
111 1 5.38212 -10.271 56.2155 -4.53445
112 1 5.05443 -7.62358 0.837723 -4.58705
113 1 7.76995 -10.1591 0.861683 -4.59462
114 1 7.74539 -7.65335 -1.98422 -4.53045
115 1 6.40333 -8.91876 -0.585184 -4.57883
116 1 6.35011 -6.39955 2.43256 -4.59121
117 1 9.03297 -8.70062 2.33408 -4.52233
118 1 8.98332 -6.29414 -0.378977 -4.52569
119 1 10.1256 -10.4405 56.6117 -4.59463
120 1 10.5912 -7.56259 0.800361 -4.4833
121 1 12.8778 -9.90665 1.11241 -4.35605
122 1 12.9315 -7.8281 56.3863 -4.55895
123 1 11.5218 -8.9564 -0.721217 -4.43197
124 1 11.696 -6.27254 2.384 -4.53523
125 1 14.3189 -8.76141 2.58145 -4.62609
126 1 14.0314 -6.34214 -0.62528 -4.58839
127 1 15.3312 -10.4272 -1.86174 -4.32386
128 1 15.4368 -7.59163 0.855192 -4.64185
129 1 18.0308 -7.72399 56.6063 -3.32281
130 1 16.7742 -9.11082 -0.387049 -4.57226
131 1 16.8612 -5.73036 1.55914 -4.18319
132 1 18.9852 -5.55714 -2.12921 -4.22506
133 1 -18.5946 -5.06082 0.897289 -4.37442
134 1 -18.2848 -2.54679 -1.62516 -4.73078
135 1 -19.6154 -3.04328 0.192582 -4.2293
136 1 -18.7904 -1.66197 1.85799 -4.4668
137 1 -16.8035 -4.19029 2.17625 -4.64651
138 1 -17.2035 -0.894882 0.0906199 -4.76128
139 1 -15.4974 -5.32164 -2.01657 -4.58542
140 1 -15.6438 -2.64121 0.781162 -4.37591
141 1 -12.9464 -5.17921 0.894734 -4.61813
142 1 -13.012 -2.4696 -2.09024 -4.58126
143 1 -14.2549 -3.94966 -0.598277 -4.56219
144 1 -14.4676 -1.37029 2.41959 -4.5696
145 1 -11.6008 -3.8456 2.32758 -4.59161
146 1 -11.8782 -1.21546 -0.479899 -4.60106
147 1 -10.5267 -5.3497 56.308 -4.56434
148 1 -10.3398 -2.57081 0.753745 -4.56798
149 1 -7.74412 -5.28689 0.711451 -4.5781
150 1 -7.77508 -2.74088 56.6166 -4.61792
151 1 -9.17802 -4.16067 -0.690551 -4.56386
152 1 -9.28325 -1.27978 2.44154 -4.51633
153 1 -6.47507 -3.89204 2.17999 -4.54261
154 1 -6.58427 -1.15723 -0.631369 -4.57578
155 1 -5.20419 -5.24287 -2.12659 -4.58036
156 1 -5.20413 -2.5511 0.673422 -4.60725
157 1 -2.70508 -5.27529 0.702903 -4.54436
158 1 -2.5106 -2.43584 -2.15695 -4.60767
159 1 -3.82727 -3.84693 -0.84296 -4.57625
160 1 -3.91145 -1.19922 2.21264 -4.58662
161 1 -1.5433 -3.84488 2.16235 -4.59852
162 1 -1.21078 -0.959302 -0.869119 -4.55483
163 1 -0.101669 -5.06793 56.4342 -4.55572
164 1 -0.190355 -2.5243 0.770113 -4.56069
165 1 2.60629 -5.17372 0.957418 -4.54452
166 1 2.55444 -2.59143 56.4714 -4.57302
167 1 1.21637 -3.84149 -0.619415 -4.55939
168 1 1.14906 -1.25798 2.26534 -4.57574
169 1 3.93112 -3.73409 2.33325 -4.58114
170 1 3.67496 -0.953837 -0.740094 -4.51664
171 1 5.25345 -5.0151 56.375 -4.56995
172 1 4.94838 -2.20318 0.761568 -4.55542
173 1 7.6077 -5.09622 0.958412 -4.55152
174 1 7.80973 -2.60571 -2.09608 -4.54909
175 1 6.39285 -3.64574 -0.559347 -4.57441
176 1 6.43902 -1.06441 2.24819 -4.6109
177 1 9.08355 -3.74386 2.21375 -4.58452
178 1 8.87887 -1.02715 -0.621643 -4.55873
179 1 10.1275 -5.21451 56.3418 -4.57888
180 1 10.426 -2.42954 0.623175 -4.55372
181 1 12.9712 -4.76934 0.881948 -4.47499
182 1 12.7618 -2.31167 -2.34517 -4.60412
183 1 11.5756 -3.82991 -0.993187 -4.49643
184 1 11.3863 -1.04279 2.35264 -4.50177
185 1 14.3708 -3.73537 2.48855 -4.3722
186 1 14.1206 -1.37129 -0.611678 -4.53232
187 1 15.2649 -4.93917 -1.96348 -4.42626
188 1 15.5945 -2.48063 0.918722 -4.51994
189 1 18.4653 -4.83492 0.0612151 -4.62344
190 1 18.214 -2.08058 56.4318 -4.63647
191 1 16.8492 -3.45496 -0.894309 -4.66339
192 1 16.9642 -1.0187 2.19412 -4.60894
193 1 19.2388 -2.82276 0.971792 -3.71248
194 1 19.4258 -0.884246 -0.431035 -4.08913
195 1 -20.1422 -1.03536 -1.09856 -4.34062
196 1 -19.2048 0.637422 2.32872 -4.33704
197 1 -18.4359 2.63816 -1.64108 -4.34765
198 1 -18.8495 0.743303 -0.219465 -4.17327
199 1 -19.2842 4.87676 3.44155 -3.56262
200 1 -17.2502 1.65467 2.93316 -4.53927
201 1 -17.1337 3.65028 0.111132 -4.33026
202 1 -16.1526 -0.235069 -1.97994 -4.25293
203 1 -15.6703 2.18547 1.20447 -4.47354
204 1 -13.196 0.128513 1.02658 -4.57416
205 1 -13.1088 2.3815 -1.70784 -4.50484
206 1 -14.6933 0.945221 -0.610212 -4.47254
207 1 -14.4 3.83315 2.40731 -4.52357
208 1 -11.7695 1.34651 2.51797 -4.53663
209 1 -12.0791 4.08611 -0.469329 -4.5342
210 1 -10.386 -0.0435956 -1.88336 -4.64989
211 1 -10.6945 2.74798 0.777437 -4.51101
212 1 -8.03084 -0.00441166 0.812321 -4.59156
213 1 -8.04443 2.79652 -2.01549 -4.56612
214 1 -9.3048 1.48566 -0.461089 -4.56516
215 1 -9.19262 4.07971 2.22138 -4.60571
216 1 -6.56352 1.33539 2.03042 -4.60648
217 1 -6.55222 4.08812 -0.734368 -4.60641
218 1 -5.4504 0.162797 -2.16479 -4.55398
219 1 -5.32026 2.82205 0.757912 -4.56505
220 1 -2.60147 0.115222 0.713843 -4.57411
221 1 -2.78147 2.57165 -2.04944 -4.55594
222 1 -4.19993 1.31858 -0.585544 -4.60893
223 1 -3.94383 4.02746 2.24892 -4.55864
224 1 -1.25078 1.44182 2.23082 -4.55696
225 1 -1.57006 3.99294 -0.632807 -4.52293
226 1 0.0966042 0.415514 56.2311 -4.58315
227 1 -0.0843061 2.81052 0.746963 -4.65151
228 1 2.56581 0.0392639 1.0013 -4.4875
229 1 2.45395 2.81333 -2.0906 -4.57961
230 1 1.33784 1.47925 -0.559623 -4.52847
231 1 1.369 4.03356 2.1427 -4.5721
232 1 3.8831 1.36891 2.29524 -4.55169
233 1 3.97451 4.15902 -0.796658 -4.5593
234 1 5.24512 0.262 56.3226 -4.57537
235 1 5.18482 2.84202 0.797025 -4.55093
236 1 7.68602 0.417381 0.921741 -4.51343
237 1 7.81891 2.81819 56.3648 -4.59986
238 1 6.50042 1.57734 -0.725044 -4.57313
239 1 6.50459 4.16869 2.22485 -4.60529
240 1 8.9808 1.58404 2.40792 -4.56234
241 1 9.07936 4.11654 -0.670225 -4.57187
242 1 10.4424 0.0541949 56.6771 -4.55033
243 1 10.3194 2.84696 0.928874 -4.5976
244 1 12.9216 0.00571641 0.800887 -4.60662
245 1 13.0531 2.91284 -1.96589 -4.62971
246 1 11.6907 1.45519 -0.472971 -4.55795
247 1 11.7907 4.2962 2.19317 -4.56564
248 1 14.2124 1.44097 2.27796 -4.52152
249 1 14.4277 4.41297 -0.676255 -4.49562
250 1 15.266 0.222179 -1.89544 -4.54032
251 1 15.4119 2.98025 0.875919 -4.38489
252 1 18.3587 0.41413 1.20003 -4.46785
253 1 17.4372 2.72718 -1.57173 -4.46383
254 1 16.5581 1.16048 -0.0813653 -4.50816
255 1 17.2216 4.2322 1.86627 -4.85682
256 1 19.7809 1.39225 2.77046 -4.36529
257 1 19.4668 3.79821 -1.80935 -4.32801
258 1 19.188 1.38839 56.2644 -3.867
259 1 -18.2734 5.41038 1.27897 -4.37265
260 1 -17.7033 8.15832 55.8626 -4.47355
261 1 -18.2081 6.45967 -0.992786 -4.12256
262 1 -16.9148 6.82788 2.36808 -4.65134
263 1 -17.342 9.444 -0.84177 -3.53258
264 1 -16.0971 5.18268 -1.69531 -5.24888
265 1 -16.0038 8.45097 0.792563 -4.56829
266 1 -13.357 5.38956 1.00009 -4.57491
267 1 -13.2719 7.93706 -1.98024 -4.58111
268 1 -14.7377 6.79959 -0.369755 -4.35495
269 1 -14.5595 9.39034 2.30412 -4.50555
270 1 -11.8525 6.64705 2.24846 -4.5704
271 1 -11.8655 9.3527 -0.655043 -4.58728
272 1 -10.6743 5.2868 56.3746 -4.52093
273 1 -10.52 7.97458 0.660307 -4.5729
274 1 -7.82945 5.44218 0.789119 -4.61633
275 1 -7.97741 8.05457 -2.03178 -4.6009
276 1 -9.32441 6.60611 -0.669171 -4.551
277 1 -9.23977 9.26695 2.09384 -4.52242
278 1 -6.47967 6.60122 2.32586 -4.58444
279 1 -6.44132 9.27096 -0.628559 -4.5838
280 1 -5.32608 5.55163 -2.06045 -4.565
281 1 -5.24198 8.03587 0.95585 -4.59629
282 1 -2.55362 5.41595 0.862275 -4.56231
283 1 -2.69399 7.89311 -2.15161 -4.56503
284 1 -3.96893 6.6334 -0.544647 -4.58718
285 1 -3.71508 9.27555 2.25349 -4.58778
286 1 -1.26863 6.86187 2.246 -4.56311
287 1 -1.17831 8.97993 -0.752795 -4.5884
288 1 -0.0899322 5.06561 56.2645 -4.52116
289 1 0.20463 8.02307 0.883047 -4.4994
290 1 2.42983 5.33909 0.499477 -4.58519
291 1 2.54826 8.02151 -1.98546 -4.57003
292 1 0.978175 6.65995 -0.79889 -4.52794
293 1 1.38392 9.55194 2.17822 -4.54912
294 1 3.64513 6.63813 2.19337 -4.57659
295 1 4.02142 9.23919 -0.597326 -4.58228
296 1 5.297 5.57684 56.1676 -4.51951
297 1 5.17183 7.96794 0.959123 -4.58317
298 1 7.87133 5.56958 0.806357 -4.60637
299 1 7.79746 7.99362 56.3122 -4.56347
300 1 6.47727 6.7794 -0.69712 -4.54657
301 1 6.45726 9.30349 2.37593 -4.60254
302 1 9.19891 6.90825 2.18956 -4.56458
303 1 9.04474 9.54586 -0.834922 -4.52693
304 1 10.168 5.52554 56.3609 -4.54724
305 1 10.3395 8.32285 0.642644 -4.32025
306 1 12.8829 5.61039 0.60149 -4.54778
307 1 12.7 7.74936 55.756 -4.30262
308 1 11.535 6.8616 -0.898625 -4.51609
309 1 12.0025 9.73405 2.05399 -4.90164
310 1 14.389 6.7926 1.98152 -4.60771
311 1 14.0566 8.816 -1.25034 -4.45396
312 1 15.5684 5.6174 56.0751 -4.35199
313 1 16.0827 8.17486 1.05131 -4.5528
314 1 18.9889 5.06008 0.289993 -4.14577
315 1 17.6274 6.768 55.9134 -4.62744
316 1 17.4056 6.77883 -0.299629 -3.74877
317 1 17.117 8.89167 2.99836 -4.26238
318 1 19.2545 5.41156 2.70399 -4.10019
319 1 -15.9832 13.1743 3.47759 -4.20419
320 1 -15.7492 10.8346 -1.93104 -4.66231
321 1 -15.2624 13.7595 1.19698 -4.10359
322 1 -13.0752 10.6098 0.917863 -4.5975
323 1 -13.2852 12.9856 -1.7416 -4.66321
324 1 -14.6595 11.8874 -0.163986 -4.50486
325 1 -13.7569 14.0176 3.07751 -4.73018
326 1 -11.6297 11.7998 2.46321 -4.4757
327 1 -12.2112 14.438 -0.181542 -4.59354
328 1 -10.6664 10.6102 56.2667 -4.63477
329 1 -10.5441 12.986 0.782473 -4.41484
330 1 -7.98403 10.637 0.632222 -4.54305
331 1 -7.8327 13.1093 56.2864 -4.55373
332 1 -9.26703 11.8514 -0.842789 -4.54283
333 1 -9.23102 14.0054 2.28788 -4.42656
334 1 -6.49576 11.6286 2.07516 -4.55714
335 1 -6.44756 14.2356 -0.691889 -4.53437
336 1 -5.19252 10.6687 56.4571 -4.58493
337 1 -5.1334 13.0788 0.905928 -4.5695
338 1 -2.38248 10.4936 0.716523 -4.5905
339 1 -2.49768 13.2188 56.5182 -4.63919
340 1 -3.81396 11.8102 -0.655652 -4.61917
341 1 -3.9937 14.5009 2.32907 -4.49962
342 1 -1.2941 11.9961 2.1304 -4.52281
343 1 -1.24405 14.593 -0.557694 -4.53514
344 1 -0.0133515 10.6021 56.4786 -4.60584
345 1 0.0545273 13.2987 0.782252 -4.56186
346 1 2.81237 10.7408 0.774588 -4.62961
347 1 2.86012 12.957 -2.09543 -4.52452
348 1 1.35052 11.9569 -0.545095 -4.54224
349 1 1.20232 14.5046 2.49358 -4.58848
350 1 3.99315 12.1963 2.14982 -4.5375
351 1 3.79929 14.7398 -0.694195 -4.44166
352 1 5.2493 10.6627 56.4235 -4.53572
353 1 5.26104 13.599 0.767674 -4.50067
354 1 7.68568 10.6084 0.852056 -4.55789
355 1 7.57676 13.4188 56.348 -4.41458
356 1 6.40965 12.0527 -0.545092 -4.54907
357 1 6.45717 14.7732 2.57554 -4.53304
358 1 8.93104 12.0425 2.17563 -4.39299
359 1 9.0497 14.7419 -0.833505 -4.82257
360 1 10.2896 10.5751 55.9914 -4.36582
361 1 10.3145 13.2482 0.648616 -4.62955
362 1 12.6414 10.3549 -0.243744 -4.43676
363 1 12.8329 12.9955 55.5458 -4.26297
364 1 11.478 12.1581 -1.20366 -4.79667
365 1 11.1599 14.4386 2.5218 -4.23363
366 1 13.8646 11.1482 2.60303 -4.31838
367 1 13.4107 13.6055 -0.68562 -4.23296
368 1 15.1422 10.2434 55.6578 -4.16913
369 1 14.4167 11.6569 0.425748 -4.66241
370 1 15.8589 10.0411 -0.52995 -4.30593
371 1 -13.6682 15.524 1.30322 -4.1282
372 1 -12.6569 16.236 3.50939 -4.15736
373 1 -10.0594 16.6713 56.0721 -4.41599
374 1 -8.25961 15.1287 0.38608 -4.53245
375 1 -8.15253 18.0951 -1.82656 -4.03086
376 1 -9.56389 17.0461 -0.157357 -4.39893
377 1 -6.79112 16.0706 1.95335 -4.72196
378 1 -8.0943 18.8285 0.633017 -4.19419
379 1 -5.20371 15.8908 56.5116 -4.55288
380 1 -5.91994 17.9152 0.701801 -4.68855
381 1 -2.8602 15.6713 0.691844 -4.55379
382 1 -2.54505 18.4606 -2.05793 -4.54338
383 1 -3.96093 17.3338 -0.602973 -4.46517
384 1 -5.07459 19.0319 2.50714 -3.69615
385 1 -1.91855 17.0903 2.35383 -4.57066
386 1 -0.840024 19.2324 -0.739366 -3.77663
387 1 0.160154 15.6878 -2.13571 -4.5347
388 1 -0.0772167 18.0391 1.09468 -4.7471
389 1 2.5725 15.8674 1.14152 -4.46731
390 1 2.57658 18.9487 -1.34289 -4.40899
391 1 1.32516 17.0214 -0.485341 -4.57549
392 1 0.896876 19.767 2.32972 -4.56324
393 1 3.49673 17.2536 2.63305 -4.58354
394 1 2.59186 20.3464 0.5323 -4.30867
395 1 4.82675 16.1101 56.252 -4.48425
396 1 4.48429 18.9512 1.25458 -4.24773
397 1 7.60046 16.4167 -0.0708893 -4.42605
398 1 8.85649 18.1167 -1.2435 -4.31093
399 1 5.73766 17.7075 -0.913749 -4.17438
400 1 5.25877 19.7862 3.37776 -3.63199
401 1 8.02889 16.564 2.24453 -4.5822
402 1 9.9152 15.5791 55.6508 -4.22953
403 1 11.9886 15.1065 0.399586 -4.24218
404 1 10.6316 16.4881 -0.970728 -4.22187
405 1 0.942282 20.6351 -1.2748 -4.41553
406 1 -12.3459 -16.0483 3.71611 -4.29467
407 1 -7.96929 -18.4029 3.66014 -3.72781
408 1 -9.27192 -16.676 8.05808 -3.68824
409 1 -6.49275 -19.3342 8.96839 -4.12025
410 1 -6.62965 -17.1645 5.17296 -4.62408
411 1 -5.68817 -18.5327 6.92195 -4.21397
412 1 -2.62202 -18.3841 3.93032 -4.3829
413 1 -3.39076 -19.0778 6.2093 -4.13067
414 1 -3.75872 -17.1516 7.61296 -4.83235
415 1 -1.50666 -19.5669 7.5325 -4.14131
416 1 -1.09491 -16.7913 4.83872 -4.67901
417 1 1.0916 -20.599 1.42856 -3.70614
418 1 0.0438533 -18.3136 6.20295 -4.55231
419 1 2.79068 -18.2802 3.16035 -4.53304
420 1 0.853378 -19.3614 4.13592 -3.90943
421 1 1.47104 -16.8312 7.5333 -4.50131
422 1 4.46382 -19.4345 8.28696 -4.13255
423 1 3.91492 -16.9727 4.79267 -4.42143
424 1 5.35066 -18.0988 6.47889 -4.63965
425 1 8.22979 -18.1003 3.14425 -4.42913
426 1 7.27983 -18.7299 5.26877 -3.41637
427 1 6.69983 -16.8593 8.04769 -4.46316
428 1 9.16545 -17.1492 4.95595 -4.36021
429 1 13.2236 -15.1483 8.93638 -4.32612
430 1 -17.768 -10.0079 5.60887 -4.14849
431 1 -16.1289 -11.8245 5.5727 -3.96348
432 1 -13.421 -14.171 4.60785 -4.3644
433 1 -12.2861 -12.7544 3.06466 -4.407
434 1 -15.3001 -13.4187 3.43697 -4.28088
435 1 -14.55 -11.5228 7.31885 -4.52268
436 1 -12.3087 -14.242 7.1767 -4.20297
437 1 -11.7061 -11.4956 4.97062 -4.5521
438 1 -10.0791 -15.9112 3.20397 -4.14943
439 1 -10.5431 -12.9208 6.44942 -4.62182
440 1 -8.05241 -15.6378 6.30065 -4.69149
441 1 -7.80193 -13.1024 3.59422 -4.62022
442 1 -9.40268 -14.253 4.93866 -4.48596
443 1 -9.2942 -11.5522 7.86935 -4.54797
444 1 -6.6619 -14.5467 7.90237 -4.57949
445 1 -6.53606 -11.8 5.10457 -4.57307
446 1 -5.17293 -15.8835 3.77628 -4.57511
447 1 -5.13992 -13.2157 6.56814 -4.59716
448 1 -2.39457 -15.5075 6.39134 -4.4581
449 1 -2.42934 -13.0776 3.67263 -4.56777
450 1 -3.86127 -14.3877 5.01076 -4.60015
451 1 -3.82885 -12.0391 8.1948 -4.5309
452 1 -1.15086 -14.3489 7.9275 -4.57111
453 1 -1.31582 -11.7211 5.23779 -4.56034
454 1 0.163664 -15.7302 3.18726 -4.54538
455 1 0.0620028 -13.0866 6.42795 -4.55189
456 1 2.93291 -15.4753 6.24225 -4.56943
457 1 2.58021 -13.0099 3.54517 -4.63395
458 1 1.27299 -14.4471 4.91272 -4.57983
459 1 1.14484 -11.6328 7.90036 -4.56705
460 1 4.07856 -13.9812 7.76365 -4.50191
461 1 3.97319 -11.6617 4.93036 -4.6262
462 1 5.27125 -15.6559 3.38612 -4.60128
463 1 5.47687 -12.9161 6.27771 -4.55236
464 1 7.9895 -15.6516 6.45291 -4.4263
465 1 7.88554 -12.7946 3.67913 -4.63892
466 1 6.5786 -14.3413 4.83209 -4.52497
467 1 6.49754 -11.7375 7.98918 -4.56362
468 1 9.265 -14.4334 7.93436 -4.52407
469 1 9.26758 -11.7008 5.21884 -4.58568
470 1 10.4573 -15.4257 3.87338 -4.53332
471 1 10.5805 -12.9625 6.64694 -4.63065
472 1 13.5662 -14.9323 6.66728 -3.85779
473 1 13.2586 -12.8651 3.61832 -4.45647
474 1 12.004 -14.1361 5.15001 -4.59624
475 1 11.8243 -11.3921 7.9088 -4.36451
476 1 13.7447 -12.8223 8.72308 -4.99374
477 1 14.512 -11.5017 5.00712 -4.4763
478 1 14.977 -13.0791 6.662 -4.18306
479 1 16.2173 -12.6602 8.74428 -4.21238
480 1 -18.3374 -7.61222 4.41604 -4.50653
481 1 -18.9399 -5.68639 9.23606 -4.25189
482 1 -17.0141 -9.25986 7.79446 -4.63567
483 1 -16.7963 -6.28046 5.38587 -4.64577
484 1 -15.9002 -9.95359 4.15655 -4.63167
485 1 -15.633 -7.73139 6.75388 -4.67746
486 1 -12.9201 -10.17 6.50127 -4.58319
487 1 -12.7484 -7.52236 3.68987 -4.46931
488 1 -14.2645 -8.65337 5.17034 -4.64356
489 1 -14.2705 -6.46688 8.17545 -4.60676
490 1 -11.7499 -9.11194 8.20388 -4.5746
491 1 -11.5805 -6.56001 5.38626 -4.48789
492 1 -9.96274 -10.3112 3.70179 -4.53179
493 1 -10.2271 -7.63044 7.03183 -4.50509
494 1 -7.65753 -10.3317 6.67849 -4.63378
495 1 -7.61652 -7.86123 3.84808 -4.55067
496 1 -9.06713 -8.90008 5.39833 -4.56123
497 1 -8.91558 -6.36818 8.37807 -4.54935
498 1 -6.31865 -9.08958 8.13995 -4.5648
499 1 -6.45176 -6.50107 5.35746 -4.55939
500 1 -5.15234 -10.5218 3.69972 -4.62021
501 1 -5.05941 -7.80735 6.69057 -4.55269
502 1 -2.64085 -10.3754 6.74444 -4.55919
503 1 -2.65712 -7.92121 3.62148 -4.56046
504 1 -3.92509 -9.15997 5.16119 -4.51655
505 1 -3.93243 -6.57723 8.33243 -4.58168
506 1 -1.22537 -9.10821 8.15626 -4.57434
507 1 -1.39783 -6.5488 5.07447 -4.57693
508 1 -0.0877907 -10.3502 3.62787 -4.58316
509 1 0.0564603 -7.7802 6.54437 -4.51024
510 1 2.61926 -10.5116 6.45795 -4.57598
511 1 2.4301 -7.84249 3.57606 -4.57222
512 1 1.24533 -9.09645 5.10444 -4.60794
513 1 1.15663 -6.44533 8.08238 -4.54996
514 1 3.7868 -9.17109 7.9855 -4.59227
515 1 3.82635 -6.65964 5.11401 -4.56244
516 1 5.26687 -10.1983 3.66526 -4.58423
517 1 5.1352 -7.83469 6.67638 -4.57148
518 1 7.9254 -10.4016 6.60692 -4.62614
519 1 7.73676 -7.55654 3.91563 -4.57596
520 1 6.58986 -9.07604 5.20905 -4.56494
521 1 6.57109 -6.48216 8.19708 -4.57298
522 1 9.28389 -9.02426 8.05986 -4.606
523 1 9.14445 -6.14339 5.27175 -4.59295
524 1 10.411 -10.1431 3.82872 -4.60128
525 1 10.3686 -7.479 6.7276 -4.57295
526 1 13.2111 -10.1029 6.45696 -4.59163
527 1 13.0716 -7.20482 3.98403 -4.55066
528 1 11.6922 -8.74038 5.19743 -4.63513
529 1 11.8035 -6.34721 8.24155 -4.58382
530 1 14.7666 -9.16945 7.92946 -4.47317
531 1 14.5831 -5.97411 5.44869 -4.41566
532 1 15.816 -10.3476 3.45827 -4.47124
533 1 15.8902 -7.51932 6.68038 -4.6816
534 1 17.8182 -6.64943 3.49734 -4.53163
535 1 16.7213 -8.38693 4.58891 -3.6267
536 1 17.0339 -6.30641 8.3822 -4.19082
537 1 18.7944 -5.29681 5.11092 -3.60173
538 1 -18.2948 -5.10083 6.86574 -4.35839
539 1 -17.6521 -2.62021 3.61003 -4.32506
540 1 -19.1519 -3.9474 4.8509 -4.46013
541 1 -19.7051 -1.85123 5.97745 -3.98749
542 1 -16.7676 -3.6613 7.95132 -4.59292
543 1 -17.4642 -0.952782 5.34125 -5.35811
544 1 -15.362 -5.31083 3.66721 -4.43914
545 1 -15.6602 -2.24127 6.47949 -4.26716
546 1 -13.0734 -5.19749 6.55525 -4.56746
547 1 -12.8779 -2.40857 3.83958 -4.57069
548 1 -14.1682 -3.72799 5.15678 -4.49399
549 1 -14.2385 -1.12127 8.05145 -4.59828
550 1 -11.8117 -3.8992 8.16611 -4.56244
551 1 -11.554 -1.24423 5.4095 -4.60104
552 1 -10.3754 -5.2611 3.77152 -4.61394
553 1 -10.319 -2.78354 6.68919 -4.55446
554 1 -7.99235 -5.07664 6.6128 -4.56418
555 1 -7.6675 -2.4699 3.58112 -4.57111
556 1 -9.05291 -3.74818 5.01369 -4.55895
557 1 -9.03993 -1.48433 8.0622 -4.54882
558 1 -6.57466 -3.77861 7.9804 -4.56925
559 1 -6.35856 -1.1833 5.14343 -4.58478
560 1 -5.35786 -5.29747 3.65913 -4.56302
561 1 -5.06496 -2.72067 6.54983 -4.56913
562 1 -2.67467 -5.34105 6.83233 -4.4967
563 1 -2.81204 -2.57275 3.72068 -4.55443
564 1 -3.85214 -4.16568 5.14509 -4.56577
565 1 -3.88959 -1.41406 8.1136 -4.55216
566 1 -1.30333 -3.88705 8.11223 -4.58387
567 1 -1.4055 -1.31508 5.19116 -4.61558
568 1 -0.108581 -5.28553 3.54321 -4.56326
569 1 -0.0589741 -2.59931 6.61862 -4.56117
570 1 2.57996 -5.28266 6.51958 -4.55513
571 1 2.38787 -2.54762 3.77372 -4.62305
572 1 1.10667 -4.03265 5.16749 -4.58734
573 1 1.35572 -1.46417 8.02918 -4.57148
574 1 3.78547 -4.22342 8.19697 -4.52209
575 1 3.85266 -1.43085 5.20054 -4.56802
576 1 5.12972 -4.98635 3.92862 -4.59531
577 1 5.02833 -2.72588 6.79101 -4.55884
578 1 7.80184 -4.9646 6.85421 -4.56396
579 1 7.90175 -2.35051 3.6731 -4.50878
580 1 6.51291 -3.62559 5.23253 -4.53663
581 1 6.45903 -1.56198 8.3467 -4.53192
582 1 9.29088 -3.80134 8.36244 -4.55777
583 1 9.13933 -1.14899 5.40799 -4.57725
584 1 10.4435 -4.86269 3.77314 -4.55832
585 1 10.5665 -2.36509 6.84141 -4.5875
586 1 13.1852 -4.82201 6.90717 -4.53765
587 1 12.8686 -2.35846 3.66212 -4.59574
588 1 11.8035 -3.75412 5.34285 -4.54863
589 1 11.873 -1.02309 8.24208 -4.60494
590 1 14.7305 -3.55402 8.03667 -4.50917
591 1 14.184 -1.02399 5.05876 -4.5874
592 1 15.9697 -5.11945 3.72004 -4.7865
593 1 15.6876 -2.24527 6.42237 -4.36361
594 1 17.5977 -4.65177 7.0174 -3.56557
595 1 18.6714 -2.17748 3.20269 -4.34004
596 1 17.3164 -3.37424 4.93558 -4.89266
597 1 17.0863 -0.997723 7.78615 -4.52064
598 1 19.1466 -1.85859 8.58003 -4.54383
599 1 19.6295 -0.277742 4.48391 -4.34622
600 1 -19.4918 0.0944411 4.63867 -4.04674
601 1 -17.8974 0.446069 7.36485 -4.42292
602 1 -18.3164 3.09359 4.47276 -4.66465
603 1 -19.4227 1.97569 6.24381 -4.57618
604 1 -19.0963 3.79412 7.77357 -3.63736
605 1 -16.502 2.135 8.44786 -4.54482
606 1 -16.8782 4.58241 5.39163 -4.6008
607 1 -15.7241 0.112333 3.89699 -4.307
608 1 -15.3869 3.14984 6.5639 -4.46058
609 1 -12.8277 0.30247 6.80764 -4.60384
610 1 -13.1192 2.66374 3.92198 -4.64158
611 1 -14.4149 1.36688 5.36942 -4.55977
612 1 -14.1126 4.3056 8.20633 -4.52803
613 1 -11.4544 1.43046 8.35338 -4.56577
614 1 -11.598 3.97947 5.24261 -4.58217
615 1 -10.3712 0.0596332 3.9022 -4.54643
616 1 -10.2222 2.65762 6.65724 -4.57867
617 1 -7.687 -0.0116409 6.70454 -4.5914
618 1 -7.75845 2.74465 3.58115 -4.56165
619 1 -8.9473 1.37221 5.24043 -4.56934
620 1 -9.07065 4.07533 8.18299 -4.51595
621 1 -6.32516 1.36739 8.07767 -4.57143
622 1 -6.45054 3.9143 5.1199 -4.57222
623 1 -5.19893 0.208915 3.59067 -4.58475
624 1 -5.09318 2.69762 6.68837 -4.54398
625 1 -2.75062 0.00333567 6.64294 -4.59248
626 1 -2.43726 2.65935 3.72404 -4.533
627 1 -3.79132 1.42299 5.13042 -4.54085
628 1 -3.91836 3.99804 8.35538 -4.55518
629 1 -1.16072 1.14114 7.97412 -4.55246
630 1 -1.18968 4.11734 5.15451 -4.52471
631 1 -0.0144802 0.122302 3.79056 -4.56213
632 1 -0.0652481 2.86796 6.72675 -4.5842
633 1 2.66008 -0.0332169 6.65595 -4.61107
634 1 2.42466 2.57152 3.66469 -4.54686
635 1 1.33613 1.43133 5.41072 -4.545
636 1 1.48281 4.02792 8.09174 -4.54998
637 1 3.97098 1.27356 8.07401 -4.60534
638 1 3.84013 3.71352 5.06871 -4.55582
639 1 5.09828 0.0744413 3.89963 -4.59686
640 1 5.17961 2.7434 6.76276 -4.55678
641 1 7.75554 -0.0128432 6.86521 -4.54232
642 1 7.64378 2.87431 3.84587 -4.5722
643 1 6.57771 1.394 5.25403 -4.5478
644 1 6.64972 3.9601 8.18093 -4.55596
645 1 9.10389 1.44051 8.22162 -4.58258
646 1 9.1534 4.05365 5.10329 -4.54105
647 1 10.2581 0.428902 4.02581 -4.52416
648 1 10.3712 2.86245 6.77749 -4.57359
649 1 13.1175 0.305511 6.71505 -4.57118
650 1 12.8708 2.91041 3.66576 -4.55346
651 1 11.7651 1.70131 5.34652 -4.58356
652 1 11.927 4.11461 8.17188 -4.53399
653 1 14.4108 1.51208 8.32632 -4.56315
654 1 14.3491 4.28234 5.03838 -4.48373
655 1 15.5173 0.252991 3.61873 -4.5454
656 1 15.3798 2.85443 6.71742 -4.53662
657 1 18.1567 0.407347 6.25592 -4.68614
658 1 17.9508 2.58695 3.45576 -4.57049
659 1 16.5934 1.6357 5.11668 -4.56397
660 1 16.8829 4.28457 7.7497 -4.58203
661 1 19.6207 1.93429 7.18783 -4.46963
662 1 19.5713 3.95501 4.53647 -4.52093
663 1 20.705 1.86013 4.98006 -4.12635
664 1 -19.0885 6.11745 7.93222 -4.48593
665 1 -17.703 7.93014 4.19492 -3.59285
666 1 -18.6665 6.08172 5.34569 -4.47785
667 1 -16.8611 6.72091 8.04882 -4.70968
668 1 -17.0707 9.77396 5.64746 -4.51902
669 1 -15.5227 5.41786 3.64959 -4.60612
670 1 -15.627 8.1537 6.53487 -4.56458
671 1 -12.8169 5.42401 6.65305 -4.5627
672 1 -13.1526 7.93844 3.66022 -4.53566
673 1 -14.3326 6.68276 5.24582 -4.55874
674 1 -14.3409 9.23423 8.18576 -4.64457
675 1 -11.6446 6.59205 8.36202 -4.52002
676 1 -11.9067 8.99206 5.21898 -4.505
677 1 -10.4835 5.38094 3.75106 -4.6263
678 1 -10.5698 7.71348 6.68761 -4.55331
679 1 -7.77274 5.15338 6.5928 -4.5428
680 1 -8.05837 7.88448 3.4448 -4.51056
681 1 -9.0995 6.64942 5.14011 -4.54408
682 1 -9.17986 9.10832 8.0364 -4.61508
683 1 -6.40867 6.41071 8.02519 -4.57419
684 1 -6.63032 8.98867 5.00705 -4.55921
685 1 -5.11248 5.34034 3.72553 -4.5982
686 1 -5.23662 7.82265 6.5376 -4.60562
687 1 -2.72992 5.18564 6.62554 -4.54607
688 1 -2.52106 7.98047 3.75945 -4.52729
689 1 -3.74319 6.58727 5.15515 -4.56632
690 1 -3.803 9.16734 7.95051 -4.56622
691 1 -1.34603 6.57944 8.00213 -4.60844
692 1 -1.219 9.20195 5.21016 -4.55803
693 1 0.0578682 5.41503 3.50203 -4.61603
694 1 0.209271 7.7551 6.63435 -4.54251
695 1 2.61178 5.1388 6.35806 -4.52171
696 1 2.58114 8.14642 3.58082 -4.56386
697 1 1.47706 6.65982 4.91977 -4.56128
698 1 1.51672 9.10726 8.06555 -4.60016
699 1 3.93907 6.41312 7.95055 -4.50451
700 1 4.04177 9.24735 5.11609 -4.57882
701 1 4.93822 5.31691 3.60443 -4.56651
702 1 5.34574 7.94041 6.65618 -4.58767
703 1 7.81027 5.3686 6.59845 -4.59151
704 1 7.80197 7.92994 3.73805 -4.58303
705 1 6.49828 6.5783 5.06753 -4.55006
706 1 6.68162 9.34919 7.99106 -4.52739
707 1 9.19357 6.66192 8.1153 -4.60427
708 1 9.29643 9.22514 5.16028 -4.53625
709 1 10.2785 5.39624 3.61723 -4.56235
710 1 10.6656 7.96445 6.78825 -4.26444
711 1 13.0925 5.35463 6.65917 -4.43463
712 1 12.9366 7.97504 3.41002 -4.33036
713 1 11.6967 6.63031 5.07187 -4.50212
714 1 11.9933 9.6355 8.35523 -4.80228
715 1 14.2809 6.74259 8.16523 -4.41958
716 1 14.1941 8.64273 5.23886 -4.40754
717 1 15.6994 5.35894 3.31225 -4.28418
718 1 15.4782 8.63437 7.34485 -4.66255
719 1 17.8376 5.07231 5.6669 -4.25885
720 1 18.933 7.5943 3.82324 -4.19845
721 1 16.8359 6.99082 4.64121 -4.80597
722 1 17.1786 9.89455 8.60665 -4.14008
723 1 18.8166 7.05964 6.12626 -4.1634
724 1 -16.349 11.4473 7.0849 -4.10298
725 1 -15.7506 10.7706 3.86024 -4.45691
726 1 -15.5578 13.3694 5.88731 -4.18858
727 1 -12.7464 10.3531 7.00662 -4.39668
728 1 -12.669 12.5775 4.44269 -3.88736
729 1 -14.3391 11.403 5.67339 -4.99983
730 1 -13.7899 14.4152 6.85056 -4.02537
731 1 -11.2916 11.8798 8.12224 -4.55363
732 1 -11.5081 14.3848 5.7672 -5.34739
733 1 -10.5243 10.2878 3.83667 -4.54133
734 1 -9.80973 13.1009 6.88427 -4.35323
735 1 -7.69764 10.3168 6.61563 -4.59579
736 1 -7.74811 12.8933 3.71972 -4.55364
737 1 -9.09464 11.596 5.3105 -4.55698
738 1 -8.41217 14.5695 8.12463 -4.59269
739 1 -6.4377 11.6896 8.14753 -4.55978
740 1 -6.45867 14.3739 5.07319 -4.6054
741 1 -5.16363 10.5272 3.77869 -4.54042
742 1 -5.23334 13.2325 6.85953 -4.49039
743 1 -2.57793 10.6514 6.54707 -4.59951
744 1 -2.51299 13.2345 3.75865 -4.52949