ITEM: TIMESTEP
154000
ITEM: NUMBER OF ATOMS
4050
ITEM: BOX BOUNDS ss ss pp
-2.0760505817529335e+01 2.0915090041090615e+01
-2.0866819209923477e+01 2.0827895175271848e+01
-2.0909350000000004e+00 5.6400935000000004e+01
ITEM: ATOMS id type x y z c_peratom
1 1 -12.1936 -16.1218 -0.174371 -4.09918
2 1 -7.55299 -18.3185 -1.27682 -4.40091
3 1 -9.07174 -17.3739 1.58754 -4.49771
4 1 -7.16315 -18.9652 1.5065 -3.94216
5 1 -6.33385 -16.4457 -0.588704 -4.65218
6 1 -5.31711 -17.868 0.848575 -4.68307
7 1 -2.74274 -18.5111 -1.91321 -4.64542
8 1 -4.70665 -19.1349 -0.98647 -3.86349
9 1 -3.64099 -17.1182 2.34886 -4.38013
10 1 -1.06871 -19.3536 2.69214 -4.31974
11 1 -1.62408 -16.7737 -0.874827 -4.50997
12 1 -0.0473134 -19.7751 -0.379779 -4.5952
13 1 -0.618007 -17.8637 0.978678 -4.61192
14 1 3.21929 -18.1775 55.8801 -4.62835
15 1 2.20623 -19.3183 -0.818173 -3.76376
16 1 1.29357 -16.7081 1.84418 -4.61226
17 1 3.35521 -19.6121 1.30338 -4.29011
18 1 3.96978 -16.6707 -0.862915 -4.6559
19 1 5.22533 -18.1887 0.381307 -4.42198
20 1 6.92619 -18.4196 -1.48169 -4.00703
21 1 9.97017 -17.8773 1.15432 -3.69904
22 1 6.34525 -16.881 2.02362 -4.58946
23 1 8.90679 -17.065 -0.708342 -4.5268
24 1 11.4908 -16.438 2.15743 -3.74935
25 1 -14.6972 -12.9391 0.30528 -4.18901
26 1 -15.0868 -14.8218 1.72025 -3.91049
27 1 -13.588 -16.5386 1.75475 -4.24717
28 1 -12.59 -13.2754 56.085 -4.622
29 1 -13.8324 -14.6899 -0.939287 -4.1451
30 1 -14.0362 -11.9479 2.37662 -4.55868
31 1 -11.7904 -14.6701 1.78414 -5.25043
32 1 -11.7111 -11.8091 -0.796763 -4.57339
33 1 -10.5324 -16.1036 -2.24049 -4.30507
34 1 -10.3574 -13.2073 0.448151 -4.34604
35 1 -7.88262 -15.4955 0.828159 -4.62462
36 1 -7.64013 -13.0501 56.4997 -4.56859
37 1 -9.11538 -14.5814 -0.916201 -4.5965
38 1 -9.19305 -11.8554 1.9945 -4.50522
39 1 -6.44452 -14.3178 2.37781 -4.53836
40 1 -6.33327 -11.7065 -0.354465 -4.57498
41 1 -4.78459 -15.5583 56.2621 -4.51171
42 1 -5.07571 -13.0817 1.02062 -4.52312
43 1 -2.83458 -15.5826 0.705856 -4.50708
44 1 -2.34566 -13.0076 56.1178 -4.52198
45 1 -3.8385 -14.0393 -0.807306 -4.49896
46 1 -3.93492 -11.53 2.39513 -4.61369
47 1 -1.43681 -14.3156 2.10769 -4.57633
48 1 -1.3417 -11.6458 -0.727077 -4.584
49 1 0.173286 -16.1319 -2.31086 -4.46687
50 1 -0.0463255 -13.1279 0.709191 -4.56695
51 1 2.76011 -15.3471 0.5793 -4.48222
52 1 2.52954 -13.107 56.2906 -4.59143
53 1 1.16945 -14.5276 -0.859874 -4.56032
54 1 1.0602 -11.6587 2.14702 -4.56744
55 1 3.86236 -14.3012 2.47716 -4.50077
56 1 3.8009 -11.6577 -0.727516 -4.55082
57 1 5.4981 -15.505 56.1599 -4.46176
58 1 4.97704 -13.0279 0.72838 -4.56406
59 1 7.87732 -15.5778 0.768848 -4.64094
60 1 7.65906 -12.862 56.4304 -4.60339
61 1 6.408 -14.3312 -0.605318 -4.56417
62 1 6.48514 -11.6771 1.95699 -4.57576
63 1 9.11315 -14.3689 2.34225 -4.54693
64 1 8.88311 -11.5606 -0.522301 -4.55897
65 1 10.4202 -15.6522 -1.98489 -4.46502
66 1 10.0708 -12.6303 1.20356 -4.48604
67 1 12.7305 -15.3124 0.347236 -4.54235
68 1 12.6584 -12.436 -1.32228 -4.19016
69 1 10.9894 -13.9376 -0.429564 -4.64448
70 1 11.7701 -11.5184 2.52584 -4.60658
71 1 14.0557 -13.6284 1.22105 -4.02
72 1 14.5383 -11.5131 -0.0701924 -5.33602
73 1 16.2602 -13.1592 0.198123 -4.02756
74 1 16.4895 -10.8283 1.10346 -4.01986
75 1 -17.9648 -7.7108 55.5711 -3.67502
76 1 -18.787 -5.74473 3.31018 -3.46579
77 1 -16.8636 -8.24017 2.62052 -3.65809
78 1 -16.9668 -6.67717 -0.628133 -4.05947
79 1 -15.4751 -10.9784 -1.6824 -3.90429
80 1 -15.4977 -7.58528 0.817989 -4.62134
81 1 -12.841 -10.5199 0.886837 -4.48887
82 1 -12.9771 -8.07235 -2.11025 -4.55874
83 1 -14.3231 -9.2509 -0.512278 -4.61937
84 1 -13.9235 -6.41952 2.23444 -4.53606
85 1 -11.3978 -9.17029 2.09455 -4.50607
86 1 -11.6491 -6.506 -0.722974 -4.54772
87 1 -10.3435 -10.3562 -2.10531 -4.63128
88 1 -10.3137 -7.70357 0.708985 -4.58161
89 1 -7.85866 -10.3184 0.781503 -4.60491
90 1 -7.70005 -7.68163 -2.32448 -4.574
91 1 -8.9566 -8.93158 -0.766188 -4.6103
92 1 -9.08705 -6.36113 2.18242 -4.57973
93 1 -6.49553 -9.08933 2.30386 -4.59208
94 1 -6.48106 -6.39636 -0.707847 -4.57855
95 1 -5.10198 -10.5263 56.5167 -4.54439
96 1 -5.20561 -7.58171 0.88425 -4.59908
97 1 -2.64159 -10.3812 0.757316 -4.57961
98 1 -2.5801 -7.69441 56.3455 -4.5834
99 1 -3.89758 -8.90467 -0.587979 -4.61134
100 1 -3.88622 -6.19633 2.27559 -4.57204
101 1 -1.33508 -8.94792 2.02266 -4.57346
102 1 -1.31157 -6.29957 -0.815801 -4.61311
103 1 0.0669598 -10.4031 56.2748 -4.59411
104 1 0.0391035 -7.57286 0.641222 -4.55528
105 1 2.45627 -10.363 0.776926 -4.60163
106 1 2.65256 -7.91078 56.2792 -4.50401
107 1 1.3268 -8.95162 -0.767179 -4.53485
108 1 1.17319 -6.45205 2.32603 -4.57427
109 1 3.87362 -9.02698 2.21845 -4.59382
110 1 3.6171 -6.41058 -0.584325 -4.56828
111 1 5.16751 -10.312 56.2645 -4.55954
112 1 5.07356 -7.68809 0.744286 -4.57438
113 1 7.68424 -10.0793 0.733314 -4.52889
114 1 7.89709 -7.45874 -2.25421 -4.57184
115 1 6.36064 -8.72796 -0.901687 -4.52527
116 1 6.30676 -6.36752 2.2679 -4.49378
117 1 8.97966 -8.92235 2.49544 -4.55986
118 1 9.03805 -6.18005 -0.50503 -4.50623
119 1 10.353 -10.1666 56.6026 -4.60457
120 1 10.1696 -7.48208 1.08579 -4.59358
121 1 12.8365 -10.1087 1.02853 -4.39404
122 1 12.8147 -7.80528 -2.126 -4.53132
123 1 11.5233 -8.73899 -0.427861 -4.54314
124 1 11.7502 -6.25043 2.33105 -4.6145
125 1 14.2236 -8.74194 2.27126 -4.61641
126 1 13.9848 -6.42031 -0.67003 -4.61212
127 1 15.5895 -10.6879 -1.97942 -4.29772
128 1 15.564 -7.68575 0.533615 -4.59181
129 1 18.2365 -7.82281 -2.14016 -3.33102
130 1 17.0342 -9.27319 -0.605587 -4.51544
131 1 16.6583 -5.772 1.4052 -4.14949
132 1 18.9472 -5.53709 56.4283 -4.18817
133 1 -18.239 -4.92271 1.09014 -4.26416
134 1 -18.0474 -2.44996 -1.61291 -4.78466
135 1 -19.6378 -3.04705 0.268807 -4.25266
136 1 -18.3483 -1.72919 1.79956 -4.49907
137 1 -16.2901 -4.10815 2.24835 -4.53769
138 1 -17.0955 -0.902324 -0.103759 -4.8309
139 1 -15.7139 -5.23159 56.5879 -4.61267
140 1 -15.4143 -2.43107 0.896441 -4.39209
141 1 -12.7306 -5.12231 0.803508 -4.55335
142 1 -13.0365 -2.5201 56.3425 -4.60599
143 1 -14.2616 -3.91973 -0.657131 -4.53031
144 1 -14.4164 -0.925026 2.44161 -4.5087
145 1 -11.6162 -3.61075 2.26654 -4.54291
146 1 -11.8203 -1.03689 -0.792545 -4.55196
147 1 -10.4999 -5.17574 56.299 -4.5268
148 1 -10.4551 -2.31443 0.749055 -4.57822
149 1 -7.71808 -4.96765 0.824245 -4.59273
150 1 -8.03784 -2.55832 56.3376 -4.63532
151 1 -9.2894 -3.85767 -0.580746 -4.57605
152 1 -9.16195 -1.13442 2.34853 -4.52488
153 1 -6.51705 -3.637 2.38947 -4.51739
154 1 -6.66364 -1.14083 -0.839471 -4.57675
155 1 -5.1964 -5.05912 56.3416 -4.61573
156 1 -5.40297 -2.3851 0.801129 -4.53538
157 1 -2.67488 -5.09259 0.631789 -4.56036
158 1 -2.7425 -2.45361 56.2037 -4.59213
159 1 -3.98589 -3.60923 -0.668389 -4.59084
160 1 -3.96005 -1.16783 2.29545 -4.60793
161 1 -1.28967 -3.88223 2.10761 -4.57158
162 1 -1.45323 -0.988745 -0.850026 -4.51968
163 1 0.116514 -4.9799 56.2905 -4.56902
164 1 -0.142888 -2.29728 0.831747 -4.56833
165 1 2.4166 -4.97969 0.833017 -4.58382
166 1 2.66934 -2.48556 56.3532 -4.58685
167 1 1.21185 -3.58989 -0.63256 -4.5857
168 1 1.31069 -1.06128 2.24849 -4.60045
169 1 3.80894 -3.69448 2.23971 -4.56878
170 1 4.03244 -1.09605 -0.690389 -4.59755
171 1 5.02766 -5.22239 56.3887 -4.51958
172 1 5.21723 -2.56911 0.822537 -4.57668
173 1 7.60142 -5.03746 0.995267 -4.54686
174 1 7.78438 -2.36637 -2.08788 -4.5564
175 1 6.47552 -3.8239 -0.684375 -4.56615
176 1 6.5595 -1.23812 2.24824 -4.56606
177 1 8.93647 -3.72275 2.46554 -4.57853
178 1 9.04977 -1.10276 -0.577623 -4.53444
179 1 10.3872 -5.06216 -1.98725 -4.5338
180 1 10.2716 -2.34559 1.01451 -4.58156
181 1 13.0034 -4.89157 0.835778 -4.57184
182 1 12.8028 -2.43804 -2.08774 -4.53268
183 1 11.5692 -3.67848 -0.541551 -4.58124
184 1 11.63 -1.05092 2.49566 -4.59782
185 1 14.3035 -3.68171 2.41273 -4.42503
186 1 13.8077 -1.08918 -0.351579 -4.54496
187 1 15.3317 -5.0397 -1.98805 -4.45766
188 1 15.5057 -2.17983 0.997957 -4.56433
189 1 18.3146 -4.68697 0.140854 -4.6387
190 1 18.0989 -2.08989 56.2847 -4.68428
191 1 16.643 -3.31745 -0.812988 -4.6654
192 1 16.8493 -1.01885 2.56069 -4.39015
193 1 19.1513 -2.57649 0.961701 -3.58533
194 1 19.3321 -0.787611 -0.629996 -4.06922
195 1 -20.1979 -1.2893 -1.30566 -4.36012
196 1 -19.2049 0.413436 2.12207 -4.44527
197 1 -18.2375 2.47077 -1.67648 -4.34019
198 1 -19.0433 0.552446 -0.315391 -4.27248
199 1 -19.1518 4.48721 3.24083 -3.65288
200 1 -17.2434 1.51077 2.61238 -4.6023
201 1 -17.1586 3.87036 -0.147463 -4.32878
202 1 -15.7626 -0.0561646 -2.08229 -4.37127
203 1 -15.7072 2.45876 1.03922 -4.46775
204 1 -13.1409 0.2718 0.789132 -4.52543
205 1 -13.1119 2.79753 -2.08032 -4.55645
206 1 -14.4424 1.37607 -0.824606 -4.53688
207 1 -14.4017 4.07484 2.17802 -4.56405
208 1 -11.8949 1.48348 2.32129 -4.57543
209 1 -12.0782 4.16124 -0.425517 -4.56462
210 1 -10.4722 0.336176 56.2994 -4.59101
211 1 -10.5982 3.02674 0.925741 -4.55616
212 1 -7.85399 0.214182 0.738151 -4.54167
213 1 -7.66402 2.72665 -2.03303 -4.5124
214 1 -9.23804 1.62422 -0.627939 -4.55179
215 1 -9.28598 4.39469 2.36834 -4.57172
216 1 -6.65986 1.3582 2.32231 -4.55016
217 1 -6.74604 4.00668 -0.424536 -4.53025
218 1 -5.19603 0.211759 56.3732 -4.58504
219 1 -5.27628 2.79496 1.02971 -4.61123
220 1 -2.75189 0.19467 0.818259 -4.59716
221 1 -2.64607 2.75685 -2.22277 -4.52891
222 1 -3.99071 1.64755 -0.608216 -4.56928
223 1 -3.87884 4.15614 2.29851 -4.62679
224 1 -1.26838 1.54819 2.10143 -4.597
225 1 -1.31304 3.82794 -0.697337 -4.56125
226 1 0.0602005 0.136954 56.1323 -4.55169
227 1 0.218362 2.78619 0.814722 -4.53592
228 1 2.60435 0.153134 0.767654 -4.52932
229 1 2.79254 2.67822 56.4312 -4.56149
230 1 1.40734 1.37071 -0.707743 -4.53251
231 1 1.36744 4.1029 2.33645 -4.52082
232 1 3.96243 1.4561 2.3208 -4.59563
233 1 3.92853 4.25828 -0.79959 -4.55788
234 1 5.41614 0.156936 56.2467 -4.53258
235 1 5.09646 2.89418 0.834808 -4.57707
236 1 7.83456 0.158865 0.825153 -4.56211
237 1 7.72018 2.81073 56.3732 -4.58254
238 1 6.4188 1.46769 -0.606697 -4.57582
239 1 6.52878 4.10363 2.27312 -4.60423
240 1 8.92324 1.54394 2.41149 -4.56078
241 1 8.99749 4.10425 -0.46116 -4.51117
242 1 10.3577 0.282573 56.5549 -4.58665
243 1 10.2107 2.94613 1.09286 -4.56957
244 1 12.8527 0.462261 1.06418 -4.57817
245 1 12.8051 2.9061 -2.12169 -4.61699
246 1 11.5301 1.74215 -0.455343 -4.54829
247 1 11.5811 4.44043 2.19465 -4.58615
248 1 14.1904 1.8488 2.42761 -4.56898
249 1 14.1804 4.28244 -0.696796 -4.50449
250 1 15.2585 0.369787 -1.65052 -4.53505
251 1 15.4139 3.18975 0.9656 -4.38852
252 1 18.2034 0.282796 1.13506 -4.49994
253 1 17.6207 2.55757 -1.64605 -4.40002
254 1 16.5526 1.34195 0.056742 -4.41819
255 1 17.0751 4.44807 2.3128 -4.86282
256 1 19.4263 1.07755 3.00992 -4.28428
257 1 19.4819 3.9098 -1.84448 -4.26082
258 1 19.6843 1.51254 56.1267 -3.92078
259 1 -18.5983 5.38273 1.23063 -4.14332
260 1 -18.1485 8.09858 55.3813 -4.35469
261 1 -18.5364 6.50408 -1.39903 -3.95231
262 1 -17.0339 6.77672 2.21922 -4.68787
263 1 -17.0896 9.19344 -1.22285 -3.66206
264 1 -16.5291 5.27076 -1.92724 -5.2913
265 1 -15.932 8.11734 0.5638 -4.56815
266 1 -13.4381 5.6747 0.732927 -4.51599
267 1 -13.1529 7.84163 -2.32037 -4.54544
268 1 -14.6786 6.7409 -1.0008 -4.27936
269 1 -14.6927 9.4957 2.06421 -4.43755
270 1 -12.0049 7.07357 2.18156 -4.52963
271 1 -11.8467 9.13565 -0.764479 -4.48665
272 1 -10.4607 4.98065 -1.9729 -4.549
273 1 -10.3252 7.94011 0.834883 -4.51555
274 1 -8.1018 5.61802 0.815906 -4.56559
275 1 -7.86281 8.08518 -2.07129 -4.61827
276 1 -9.28233 6.65192 -0.888322 -4.53627
277 1 -8.8675 9.17784 2.29962 -4.52818
278 1 -6.53647 6.70351 2.22241 -4.56323
279 1 -6.59373 9.4469 -0.644627 -4.58827
280 1 -5.51772 5.3967 56.5409 -4.55111
281 1 -5.23549 8.1033 0.902458 -4.56961
282 1 -2.657 5.3933 0.68645 -4.53847
283 1 -2.41766 7.85997 56.5777 -4.56668
284 1 -4.08116 6.69511 -0.708983 -4.58038
285 1 -4.02396 9.40001 2.41793 -4.59755
286 1 -1.2559 6.43796 2.26427 -4.58449
287 1 -1.27905 9.34654 -0.408223 -4.56981
288 1 0.0772552 4.98748 -2.23249 -4.61026
289 1 -0.00316837 7.9192 0.962316 -4.59167
290 1 2.49916 5.40122 0.626072 -4.54344
291 1 2.55789 7.80706 -2.08402 -4.55615
292 1 1.04742 6.55121 -0.713341 -4.55376
293 1 1.26766 9.39474 2.25715 -4.58525
294 1 3.89343 6.71163 2.17413 -4.57666
295 1 3.77895 9.27227 -0.693991 -4.53858
296 1 5.35089 5.46716 -2.17261 -4.5855
297 1 5.24881 8.1222 0.797209 -4.61687
298 1 7.77951 5.60844 0.894859 -4.51856
299 1 7.82825 8.26148 56.5063 -4.5588
300 1 6.59547 6.72259 -0.672296 -4.52846
301 1 6.51169 9.37518 2.36231 -4.5781
302 1 9.01036 7.1098 2.04644 -4.47989
303 1 8.96281 9.73397 -0.675709 -4.53587
304 1 10.1985 5.4377 56.3434 -4.57151
305 1 10.3806 8.44779 0.700384 -4.40552
306 1 12.8765 5.67325 0.573491 -4.54691
307 1 12.5841 7.89518 55.7696 -4.34463
308 1 11.4305 7.01371 -0.841125 -4.5461
309 1 11.9453 9.65287 2.08476 -4.84159
310 1 14.3671 6.9936 1.84772 -4.51455
311 1 14.0802 8.79668 -1.1628 -4.46608
312 1 15.3586 5.35834 56.0585 -4.3267
313 1 16.2459 8.28171 1.12162 -4.55071
314 1 18.6658 4.91337 0.449183 -4.0564
315 1 17.2828 6.65871 56.0282 -4.62693
316 1 17.6529 6.8808 -0.0826589 -3.70727
317 1 17.3041 8.81782 3.21865 -4.20452
318 1 19.3216 5.44541 2.7667 -4.13732
319 1 -16.2474 13.3166 3.49159 -4.21169
320 1 -15.4752 10.7615 -2.13568 -4.65576
321 1 -15.6499 13.9045 1.0681 -4.09904
322 1 -13.1101 10.6331 0.80195 -4.56327
323 1 -13.2316 12.9951 -1.63192 -4.60294
324 1 -14.7174 12.0123 -0.185982 -4.49898
325 1 -14.046 13.897 2.85474 -4.8426
326 1 -11.686 11.8157 2.26308 -4.49188
327 1 -12.3276 14.6941 -0.384196 -4.63798
328 1 -10.539 10.5522 56.4042 -4.61714
329 1 -10.7593 13.2635 0.746267 -4.48927
330 1 -7.98932 10.7462 0.764016 -4.5533
331 1 -8.01969 13.1144 56.1492 -4.50997
332 1 -9.26813 12.1045 -0.654388 -4.49822
333 1 -9.36668 14.3233 2.21644 -4.44605
334 1 -6.5928 11.8981 2.25557 -4.63164
335 1 -6.68242 14.3174 -0.845979 -4.55037
336 1 -5.1555 10.4594 -2.20773 -4.54402
337 1 -5.39141 13.3393 0.830336 -4.47731
338 1 -2.71702 10.5991 0.946752 -4.58268
339 1 -2.8828 12.9429 56.5251 -4.62201
340 1 -4.2526 11.7663 -0.504199 -4.57234
341 1 -4.12723 14.5159 2.2502 -4.36765
342 1 -1.26111 11.9502 2.33699 -4.59091
343 1 -1.63897 14.4339 -0.657081 -4.57652
344 1 0.0703743 10.3961 -2.04597 -4.55135
345 1 -0.0860008 13.3034 0.844275 -4.58977
346 1 2.6149 10.5973 0.740842 -4.57008
347 1 2.65965 13.1793 -2.14456 -4.55862
348 1 1.17322 11.9955 -0.658817 -4.59306
349 1 1.14727 14.6744 2.35283 -4.58672
350 1 3.84709 12.053 2.23314 -4.56384
351 1 3.76821 14.6313 -0.659013 -4.56045
352 1 5.23357 10.5019 -2.12154 -4.56374
353 1 5.23501 13.5379 0.828614 -4.47331
354 1 7.62257 10.893 0.848758 -4.58249
355 1 7.6201 13.4499 -2.13055 -4.36307
356 1 6.39584 12.133 -0.767158 -4.53739
357 1 6.529 14.8584 2.42491 -4.53598
358 1 9.11141 12.3224 2.17053 -4.38775
359 1 9.06613 14.7816 -0.670758 -4.82161
360 1 10.4142 10.808 56.147 -4.38487
361 1 10.6324 13.4877 0.567436 -4.65349
362 1 12.7815 10.3585 -0.103236 -4.4125
363 1 13.0663 13.2451 55.5146 -4.17476
364 1 11.8892 12.3218 -1.18338 -4.79313
365 1 11.6365 14.4477 2.52107 -4.15607
366 1 14.0151 11.1361 2.85426 -4.18717
367 1 13.9695 13.5284 -0.737026 -4.26232
368 1 15.3475 9.89463 55.6314 -4.19117
369 1 14.6207 11.6942 0.606229 -4.68233
370 1 15.9802 10.1684 -0.504281 -4.34391
371 1 -13.974 15.525 1.01296 -4.19037
372 1 -13.1109 16.141 3.19566 -4.20802
373 1 -9.90522 16.8168 55.7516 -4.42708
374 1 -8.40308 15.4114 0.238046 -4.53602
375 1 -8.19374 18.4568 56.4559 -4.12443
376 1 -9.64598 17.2473 -0.477715 -4.404
377 1 -6.72648 16.2382 1.70401 -4.74269
378 1 -8.10893 18.7897 0.363226 -4.2226
379 1 -5.6079 15.8017 56.1397 -4.60953
380 1 -5.96467 17.9577 0.27324 -4.73319
381 1 -3.21797 15.6233 0.517272 -4.50037
382 1 -2.6896 18.5544 56.2782 -4.63471
383 1 -4.14947 17.0816 -1.03291 -4.47293
384 1 -4.84869 19.1273 1.9675 -3.70009
385 1 -1.67206 16.924 1.83993 -4.58973
386 1 -1.01835 19.6404 -0.899561 -3.68072
387 1 -0.0048553 15.4925 56.4534 -4.43881
388 1 -0.134486 18.3753 0.821887 -4.69204
389 1 2.35846 15.9244 0.726956 -4.57019
390 1 2.49407 18.6413 -1.52798 -4.44236
391 1 0.961689 17.0514 -0.703193 -4.57201
392 1 1.14339 19.715 2.2311 -4.5383
393 1 3.63107 17.12 2.35458 -4.63114
394 1 2.75689 20.0936 0.415622 -4.33347
395 1 4.93443 16.0532 56.258 -4.49373
396 1 4.67749 18.8538 1.11118 -4.29972
397 1 7.85783 16.7689 0.0673893 -4.41921
398 1 9.29516 18.03 -1.22983 -4.36134
399 1 6.0013 17.7305 -1.00079 -4.32232
400 1 5.34387 19.6769 3.32012 -3.60406
401 1 8.25779 16.5226 2.30923 -4.51768
402 1 10.006 15.3751 55.6607 -4.29568
403 1 12.4744 15.0003 0.454499 -4.25998
404 1 10.9539 16.3586 -0.973723 -4.2346
405 1 1.1703 20.4862 -1.30835 -4.32666
406 1 -12.5017 -16.0792 3.70293 -4.25307
407 1 -7.90229 -18.2959 3.46642 -3.62436
408 1 -8.94973 -16.6697 8.32175 -3.62811
409 1 -6.46438 -18.9186 9.10488 -4.08868
410 1 -6.47276 -17.1549 5.03796 -4.55087
411 1 -5.61047 -18.1688 6.92778 -4.15426
412 1 -2.50775 -18.1006 4.1569 -4.39962
413 1 -3.41165 -18.9124 6.28551 -4.17703
414 1 -3.73753 -16.9553 7.67257 -4.82809
415 1 -1.43901 -19.4811 7.60946 -4.08648
416 1 -0.786522 -16.7017 5.0954 -4.5951
417 1 0.908322 -20.4833 1.78255 -3.96357
418 1 0.387018 -18.573 6.27505 -4.28279
419 1 2.68632 -18.2167 3.14755 -4.56373
420 1 0.837653 -19.4449 4.00038 -4.28467
421 1 1.25093 -16.7237 7.66008 -4.50066
422 1 4.22037 -19.3438 8.51197 -4.39381
423 1 3.86287 -17.2015 5.06194 -4.46459
424 1 5.40613 -18.4852 6.51401 -4.42573
425 1 8.33881 -17.9067 2.96766 -4.40783
426 1 7.41321 -18.6453 5.045 -3.35514
427 1 6.68919 -17.0319 7.87784 -4.47384
428 1 9.4078 -17.2702 5.16835 -4.45508
429 1 13.1187 -15.5057 9.24311 -4.11485
430 1 -17.3518 -9.77488 5.54831 -4.26445
431 1 -15.8677 -11.7343 5.47395 -4.09166
432 1 -13.3741 -14.213 4.98392 -4.50045
433 1 -12.1521 -12.9484 3.48736 -4.3579
434 1 -15.3336 -13.4151 3.78821 -4.31588
435 1 -14.4111 -11.7038 7.40784 -4.47124
436 1 -12.1189 -14.2927 7.21877 -4.40028
437 1 -11.6157 -11.4569 5.14607 -4.50717
438 1 -10.197 -15.9041 3.07102 -4.1397
439 1 -10.3595 -12.8994 6.50902 -4.59458
440 1 -7.82327 -15.6182 6.33546 -4.57504
441 1 -8.02751 -13.0236 3.69165 -4.60327
442 1 -9.33842 -14.5826 4.90667 -4.4641
443 1 -9.10347 -11.6285 8.08092 -4.56843
444 1 -6.62419 -14.0207 7.83525 -4.53013
445 1 -6.65215 -11.7428 5.1314 -4.59252
446 1 -5.11178 -15.7668 3.67097 -4.62178
447 1 -5.11517 -12.9636 6.41071 -4.56207
448 1 -2.29901 -15.4054 6.55343 -4.43056
449 1 -2.60771 -12.8946 3.73775 -4.57217
450 1 -3.87465 -14.3147 5.08684 -4.59048
451 1 -3.83835 -11.7422 8.04362 -4.53868
452 1 -1.3042 -13.9455 8.04478 -4.58187
453 1 -1.33185 -11.6269 5.11301 -4.5369
454 1 0.269849 -15.4162 3.46943 -4.54102
455 1 0.125911 -12.6792 6.61905 -4.55904
456 1 2.72986 -15.5265 6.2456 -4.58156
457 1 2.56393 -12.7501 3.63601 -4.61711
458 1 1.34413 -14.075 5.11622 -4.57953
459 1 1.63611 -11.4761 8.11904 -4.5577
460 1 4.01313 -14.2629 7.6987 -4.53549
461 1 4.2086 -11.5093 4.96132 -4.57281
462 1 5.19527 -15.7426 3.78765 -4.57355
463 1 5.37574 -12.9726 6.34437 -4.60956
464 1 8.10939 -15.7876 6.45617 -4.50952
465 1 7.68471 -12.9488 3.61205 -4.59298
466 1 6.65242 -14.4814 5.06406 -4.57896
467 1 6.58712 -11.8304 8.03631 -4.56858
468 1 9.27072 -14.4933 8.04411 -4.35893
469 1 9.22005 -11.6957 5.02003 -4.58907
470 1 10.3991 -15.4796 3.91759 -4.53665
471 1 10.6199 -12.8504 6.51491 -4.54306
472 1 13.7805 -14.8304 6.93892 -4.05411
473 1 13.3187 -13.052 3.53251 -4.45733
474 1 12.0792 -14.2887 5.23052 -4.47054
475 1 12.1045 -11.5717 7.89412 -4.31189
476 1 13.7572 -13.1 8.70902 -5.28198
477 1 14.4966 -11.5851 4.96014 -4.42205
478 1 15.3507 -13.1447 6.67071 -4.02322
479 1 16.1936 -12.7899 8.85915 -4.14778
480 1 -18.083 -7.7236 4.54963 -4.65175
481 1 -18.7996 -5.62858 9.19616 -4.26823
482 1 -16.8581 -9.35614 7.85427 -4.56671
483 1 -16.6307 -6.26603 5.58915 -4.6234
484 1 -15.6131 -9.73426 4.00143 -4.54117
485 1 -15.5174 -7.6557 7.08416 -4.66419
486 1 -12.8596 -10.1768 6.67174 -4.61778
487 1 -12.7066 -7.81019 3.75319 -4.52285
488 1 -14.1968 -8.7319 5.45583 -4.60784
489 1 -14.1689 -6.36435 8.43079 -4.54384
490 1 -11.5939 -9.04725 8.23441 -4.50957
491 1 -11.4908 -6.37039 5.14456 -4.55543
492 1 -10.1088 -10.3289 3.61195 -4.52925
493 1 -10.3679 -7.70102 6.7987 -4.53784
494 1 -7.68081 -10.2726 6.6925 -4.55934
495 1 -7.78937 -7.64718 3.68833 -4.57749
496 1 -9.11662 -8.90548 5.1287 -4.48722
497 1 -9.04096 -6.39054 8.23818 -4.54614
498 1 -6.28625 -9.10329 8.19332 -4.57175
499 1 -6.55893 -6.51244 5.20108 -4.5128
500 1 -5.29575 -10.3158 3.86374 -4.58794
501 1 -5.11117 -7.64292 6.63556 -4.54225
502 1 -2.58265 -10.2876 6.62715 -4.60578
503 1 -2.59825 -7.79861 3.61145 -4.55906
504 1 -3.83863 -8.90995 5.22521 -4.54863
505 1 -3.85331 -6.34573 8.19415 -4.56162
506 1 -1.20642 -9.0466 7.99414 -4.60943
507 1 -1.26954 -6.52523 5.12045 -4.62719
508 1 -0.224238 -10.2788 3.67287 -4.52284
509 1 0.147678 -7.72051 6.55918 -4.58027
510 1 2.93176 -10.2979 6.53939 -4.5503
511 1 2.58975 -7.78585 3.80912 -4.59545
512 1 1.22396 -9.2083 5.18021 -4.55869
513 1 1.24737 -6.31355 8.06622 -4.58234
514 1 4.06593 -9.00552 8.04602 -4.5838
515 1 3.90205 -6.34971 5.16932 -4.59699
516 1 5.51317 -10.2 3.54441 -4.58459
517 1 5.2479 -7.60835 6.58305 -4.63035
518 1 7.90392 -10.476 6.6374 -4.60618
519 1 7.7591 -7.42583 3.83912 -4.55259
520 1 6.68423 -8.91174 5.26822 -4.57255
521 1 6.54011 -6.31291 8.05965 -4.61207
522 1 9.16955 -9.09473 8.23351 -4.61539
523 1 9.2048 -6.48257 5.30028 -4.51713
524 1 10.5005 -10.0928 3.86975 -4.59402
525 1 10.4553 -7.59689 6.90993 -4.54448
526 1 13.2965 -10.2968 6.44557 -4.60109
527 1 13.1815 -7.38803 3.85254 -4.5494
528 1 11.9079 -8.74212 5.35414 -4.59414
529 1 11.9434 -6.31844 8.37015 -4.61629
530 1 14.6301 -8.9862 7.90277 -4.48197
531 1 14.4595 -6.11066 5.38934 -4.43616
532 1 15.8903 -10.1185 3.48703 -4.38416
533 1 15.9283 -7.52038 6.6208 -4.61548
534 1 17.9134 -6.25258 3.48902 -4.42982
535 1 16.7636 -7.9991 4.45501 -3.59803
536 1 17.3981 -6.34263 8.23301 -4.20758
537 1 19.0942 -4.63445 4.61524 -4.173
538 1 -18.0514 -4.91379 6.93494 -4.45659
539 1 -17.4068 -2.7385 3.77076 -4.29334
540 1 -19.0148 -3.95483 5.02707 -4.48325
541 1 -19.7691 -1.78655 6.01187 -4.01555
542 1 -16.6728 -3.28443 8.06636 -4.55354
543 1 -17.5753 -0.941296 5.40111 -5.28421
544 1 -15.2599 -5.3094 3.82669 -4.40294
545 1 -15.6086 -1.99751 6.46981 -4.24906
546 1 -13.0383 -5.23333 6.65295 -4.54589
547 1 -13.0521 -2.34045 3.81737 -4.5953
548 1 -14.2723 -3.64857 5.34644 -4.53226
549 1 -14.2739 -0.944284 8.08121 -4.57299
550 1 -11.862 -3.85666 8.17211 -4.572
551 1 -11.8634 -0.955366 5.37911 -4.55542
552 1 -10.3088 -5.07317 3.57275 -4.53174
553 1 -10.5853 -2.74006 6.60687 -4.51815
554 1 -7.8069 -5.15417 6.64642 -4.53741
555 1 -7.8586 -2.39784 3.96529 -4.5651
556 1 -9.07038 -3.88238 5.28415 -4.52642
557 1 -9.4342 -1.38607 8.11912 -4.50709
558 1 -6.68245 -3.79392 8.22836 -4.59854
559 1 -6.42478 -1.22118 5.34737 -4.6242
560 1 -5.36724 -5.0229 3.77289 -4.56831
561 1 -5.14985 -2.59599 6.82257 -4.57548
562 1 -2.71297 -5.23446 6.45468 -4.58
563 1 -2.54089 -2.52519 3.62532 -4.59632
564 1 -3.95209 -3.80749 5.09277 -4.57558
565 1 -3.83896 -1.30037 8.31375 -4.59722
566 1 -1.34188 -3.91637 7.92636 -4.52756
567 1 -1.26763 -1.19495 5.14928 -4.55322
568 1 -0.101052 -5.07 3.75901 -4.57173
569 1 -0.0484593 -2.53169 6.64187 -4.61248
570 1 2.64824 -5.06392 6.75065 -4.56086
571 1 2.4724 -2.53409 3.75273 -4.56922
572 1 1.28557 -3.93223 5.27356 -4.57462
573 1 1.2983 -1.25798 8.12885 -4.56554
574 1 4.18797 -3.77341 8.18247 -4.53936
575 1 3.70634 -1.05714 5.20406 -4.58122
576 1 5.22797 -4.96229 3.6906 -4.56534
577 1 5.27296 -2.28481 6.6058 -4.50988
578 1 7.9137 -5.11435 6.67163 -4.57942
579 1 7.86264 -2.29711 3.99997 -4.58538
580 1 6.51293 -3.67899 5.28223 -4.5813
581 1 6.35306 -1.25635 8.36972 -4.53867
582 1 9.19658 -3.7363 8.23151 -4.57973
583 1 9.03324 -1.02657 5.59032 -4.54783
584 1 10.3228 -4.99355 3.86917 -4.59577
585 1 10.5013 -2.35366 6.87195 -4.59703
586 1 13.0421 -4.88761 6.89632 -4.56969
587 1 12.9988 -2.48529 3.91435 -4.57582
588 1 11.6565 -3.70699 5.39891 -4.57672
589 1 11.8708 -1.10791 8.32172 -4.58097
590 1 14.478 -3.44941 8.22247 -4.60048
591 1 14.1612 -0.935837 5.34788 -4.6211
592 1 15.777 -5.05478 3.75485 -4.75596
593 1 15.7999 -2.16553 6.67039 -4.40758
594 1 18.2385 -4.47599 6.72451 -3.41115
595 1 18.7158 -2.31055 3.43109 -4.61031
596 1 17.0463 -3.4291 4.9657 -4.76578
597 1 17.1061 -0.83293 8.11181 -4.56811
598 1 19.0203 -1.92492 8.95319 -4.56828
599 1 19.3627 -0.368509 4.91811 -4.24192
600 1 -19.6705 0.0374755 4.44737 -4.05923
601 1 -17.8742 0.619512 7.14215 -4.40947
602 1 -17.949 2.9936 4.33914 -4.7327
603 1 -19.3382 1.95213 5.87168 -4.65592
604 1 -19.1388 3.61391 7.6363 -3.67863
605 1 -16.7498 1.97883 8.63558 -4.55938
606 1 -16.893 4.78027 5.42768 -4.54776
607 1 -16.0337 0.141474 4.01992 -4.28396
608 1 -15.7071 3.19429 6.77631 -4.46474
609 1 -13.1261 0.550586 6.70259 -4.61033
610 1 -13.1188 2.90013 3.75338 -4.59316
611 1 -14.573 1.6817 5.23108 -4.55976
612 1 -14.1606 4.33203 8.13666 -4.50176
613 1 -11.6637 1.60396 8.19747 -4.59768
614 1 -11.7569 4.16943 5.11647 -4.56323
615 1 -10.5688 0.144395 3.70966 -4.60536
616 1 -10.3869 2.69321 6.55526 -4.51821
617 1 -7.85123 0.0343904 6.72154 -4.52562
618 1 -8.00073 2.95165 3.63168 -4.52731
619 1 -9.09849 1.34554 5.09718 -4.59186
620 1 -8.9538 3.8657 8.2148 -4.55641
621 1 -6.44627 1.26739 8.13948 -4.61085
622 1 -6.43963 3.97196 5.18528 -4.56615
623 1 -5.18915 0.208451 3.79046 -4.56673
624 1 -5.14284 2.51715 6.61007 -4.55426
625 1 -2.46096 -0.00929337 6.78035 -4.56972
626 1 -2.65584 2.67914 3.70777 -4.56647
627 1 -3.72481 1.29229 5.26031 -4.54796
628 1 -4.04027 3.84888 8.16655 -4.56015
629 1 -1.12545 1.37345 8.11184 -4.57116
630 1 -1.44464 4.134 5.22316 -4.59472
631 1 -0.0768008 0.258346 3.63238 -4.60664
632 1 -0.0811753 2.68789 6.49021 -4.61365
633 1 2.4096 0.198555 6.68151 -4.51812
634 1 2.71898 2.83636 3.81639 -4.60495
635 1 1.34285 1.47079 5.11271 -4.56738
636 1 1.37673 3.84409 7.94378 -4.56215
637 1 3.78788 1.24848 8.21623 -4.53903
638 1 3.97488 4.19416 5.18877 -4.59301
639 1 5.2512 0.108492 3.75609 -4.59422
640 1 5.04732 2.7083 6.73235 -4.57441
641 1 7.5887 0.175873 6.91348 -4.59431
642 1 7.68972 2.80326 3.90935 -4.56229
643 1 6.40088 1.47977 5.29366 -4.56389
644 1 6.39269 4.12612 8.10849 -4.53013
645 1 9.10041 1.49579 8.20061 -4.55249
646 1 9.03572 4.28086 5.17862 -4.56801
647 1 10.2044 0.167851 3.88501 -4.60336
648 1 10.1954 2.96564 6.77095 -4.58744
649 1 12.8979 0.47126 6.8164 -4.57887
650 1 12.8514 3.07384 3.72233 -4.56066
651 1 11.5253 1.67502 5.23199 -4.55929
652 1 11.4957 4.47667 8.09565 -4.47633
653 1 14.2654 1.63014 8.34755 -4.56248
654 1 14.1125 4.47843 5.06278 -4.52244
655 1 15.3994 0.368892 3.82101 -4.5755
656 1 15.0742 3.19572 6.86546 -4.48
657 1 17.7478 0.568055 6.33281 -4.69523
658 1 17.7666 2.61808 3.62389 -4.53288
659 1 16.3081 2.00546 5.29061 -4.52616
660 1 16.6776 4.37948 8.15548 -4.52876
661 1 19.2628 1.91548 7.50254 -4.43377
662 1 19.3629 4.04375 4.82748 -4.47665
663 1 20.4351 1.8326 5.17716 -4.03515
664 1 -18.9054 5.92838 7.68454 -4.45326
665 1 -17.7526 7.77844 4.13919 -3.61248
666 1 -18.8777 5.94834 5.11663 -4.54968
667 1 -16.686 6.73701 7.8685 -4.61444
668 1 -17.1153 9.77245 5.349 -4.49435
669 1 -15.551 5.61578 3.52131 -4.56118
670 1 -15.6416 8.17577 6.42996 -4.50629
671 1 -12.9591 5.5455 6.60178 -4.54265
672 1 -13.117 8.49869 3.76859 -4.52201
673 1 -14.3171 6.91796 5.11044 -4.5572
674 1 -14.121 9.03518 7.98748 -4.64771
675 1 -11.4459 6.59391 8.05862 -4.55954
676 1 -11.516 9.44228 5.27691 -4.53197
677 1 -10.6982 5.82117 3.73054 -4.57061
678 1 -10.284 8.03641 6.66669 -4.61642
679 1 -7.70881 5.18308 6.6515 -4.56362
680 1 -7.75763 7.90251 3.8934 -4.54717
681 1 -9.07832 6.60308 5.29207 -4.58753
682 1 -8.87156 9.25376 8.12105 -4.58243
683 1 -6.47122 6.63868 7.92173 -4.56603
684 1 -6.56691 9.25746 5.28237 -4.60306
685 1 -5.20452 5.39799 3.78981 -4.59221
686 1 -5.04394 8.0237 6.56314 -4.56733
687 1 -2.6701 5.32496 6.82919 -4.57183
688 1 -2.46583 8.00108 3.57975 -4.591
689 1 -3.63907 6.64779 5.13033 -4.56874
690 1 -4.09791 9.32532 8.39722 -4.52552
691 1 -1.15528 6.52446 8.119 -4.54078
692 1 -1.4016 9.29974 5.17401 -4.58523
693 1 0.118829 5.28916 3.8951 -4.54778
694 1 0.00041049 8.04593 6.61539 -4.59776
695 1 2.65099 5.49341 6.61607 -4.6021
696 1 2.79064 8.152 3.6599 -4.58044
697 1 1.45033 6.90583 5.1305 -4.60074
698 1 1.39589 9.27552 8.05048 -4.62094
699 1 4.16519 6.62802 8.07988 -4.58393
700 1 3.98582 9.511 5.28312 -4.5829
701 1 5.21896 5.4331 3.6909 -4.58107
702 1 5.37185 8.10939 6.65593 -4.57991
703 1 7.74568 5.49542 6.75473 -4.604
704 1 8.02749 8.23321 3.86785 -4.54218
705 1 6.58799 6.77571 5.14844 -4.58491
706 1 6.50011 9.51709 8.10298 -4.52575
707 1 9.18965 6.82851 8.15702 -4.56273
708 1 9.16029 9.84358 5.15724 -4.48918
709 1 10.1586 5.66833 3.69851 -4.52718
710 1 10.311 8.45179 6.7288 -4.30801
711 1 12.7407 5.80091 6.50275 -4.53353
712 1 12.8585 7.91703 3.46172 -4.31901
713 1 11.3952 7.07021 5.02719 -4.5092
714 1 11.904 9.75728 8.20613 -4.87653
715 1 14.2576 6.78042 8.12163 -4.38517
716 1 14.2571 8.72779 5.29663 -4.37463
717 1 15.4272 5.685 3.56708 -4.28102
718 1 15.6164 8.6309 7.41677 -4.59849
719 1 17.7052 4.98952 6.0764 -4.26365
720 1 19.0988 7.46046 4.06436 -4.23169
721 1 16.8906 6.95164 4.96304 -4.76285
722 1 17.2354 10.071 8.65299 -4.17227
723 1 18.9464 6.86459 6.34406 -4.20544
724 1 -16.4163 11.4537 6.98536 -3.96921
725 1 -16.0033 10.9354 3.6168 -4.4547
726 1 -15.7082 13.5175 5.77956 -4.25722
727 1 -12.8515 10.6308 6.8099 -4.47024
728 1 -12.5064 12.723 4.23133 -3.95717
729 1 -14.3312 11.5378 5.23632 -4.8902
730 1 -13.6847 14.4218 6.75899 -4.05397
731 1 -11.4243 12.1177 8.04284 -4.59681
732 1 -11.661 14.6666 5.53499 -5.43584
733 1 -10.2842 10.5049 3.63488 -4.57224
734 1 -9.98227 13.3967 6.72629 -4.35315
735 1 -7.87479 10.6976 6.52975 -4.59242
736 1 -7.78431 13.4292 3.55031 -4.51943
737 1 -9.12628 12.0555 4.96681 -4.56905
738 1 -8.52275 14.8752 7.8459 -4.60288
739 1 -6.41918 11.9987 7.92054 -4.51004
740 1 -6.43385 14.7514 4.82611 -4.60507
741 1 -5.35989 10.7153 3.85531 -4.59718
742 1 -5.33325 13.4069 6.41433 -4.55776
743 1 -2.9306 10.5108 6.59994 -4.54641
744 1 -2.70298 13.2155 3.65417 -4.52011