ITEM: TIMESTEP
394000
ITEM: NUMBER OF ATOMS
4050
ITEM: BOX BOUNDS ss ss pp
-2.0438797925969055e+01 2.0399347969460379e+01
-2.0041713182954847e+01 2.0169041985978666e+01
-5.3495350000000013e+00 5.9659534999999998e+01
ITEM: ATOMS id type x y z c_peratom
1 1 -10.9043 -14.0311 -2.70448 -4.25996
2 1 -7.55212 -16.8591 59.5784 -4.17624
3 1 -8.45276 -16.2039 -1.05935 -4.51224
4 1 -6.84106 -17.9045 -1.39899 -3.67509
5 1 -5.81876 -15.9285 -4.07675 -4.91597
6 1 -4.81245 -17.4366 -2.53609 -4.36171
7 1 -2.35885 -17.1509 59.4318 -4.66038
8 1 -4.4366 -18.0319 -4.82656 -4.10931
9 1 -3.43558 -16.1834 -1.05976 -4.4072
10 1 -0.590202 -19.0015 -0.618942 -4.40344
11 1 -1.09889 -15.8551 -4.12507 -4.49198
12 1 0.0830351 -18.7501 -3.89954 -4.13835
13 1 -0.562396 -17.2626 -2.25533 -4.56565
14 1 2.86964 -17.0673 59.587 -4.53197
15 1 2.34577 -19.1056 -4.03419 -4.25364
16 1 1.19926 -16.1643 -1.07377 -4.62294
17 1 3.02997 -18.8053 -1.87501 -4.20249
18 1 3.96582 -15.7086 -3.94293 -4.64626
19 1 4.89995 -17.4359 -2.78641 -4.48155
20 1 6.33521 -17.9171 -4.59204 -4.23579
21 1 9.26225 -16.5677 -1.59798 -4.30991
22 1 5.99711 -16.1336 -1.15852 -4.51542
23 1 8.55399 -16.6419 -3.92934 -4.09021
24 1 10.7417 -14.923 -0.745025 -4.50902
25 1 -14.3444 -12.0291 -3.88511 -4.00888
26 1 -14.3854 -13.0436 -1.15842 -3.90155
27 1 -12.6995 -14.6266 -1.34419 -4.34785
28 1 -11.8534 -13.1713 58.1892 -4.43521
29 1 -12.1889 -12.8214 -4.41429 -4.53879
30 1 -14.3229 -10.8448 -1.82418 -4.42171
31 1 -10.856 -13.3112 -0.390396 -4.93521
32 1 -10.9761 -10.8074 -4.28627 -4.54795
33 1 -8.55635 -14.9039 58.8854 -4.14184
34 1 -9.48718 -12.0987 -2.98299 -4.4699
35 1 -7.07798 -14.8147 -2.41691 -4.33625
36 1 -6.93804 -12.1341 59.4421 -4.46083
37 1 -8.12648 -13.5717 -4.15345 -4.41676
38 1 -8.37456 -11.2352 -0.969524 -4.36799
39 1 -5.90965 -13.7478 -0.742015 -4.50857
40 1 -5.85158 -10.7667 -3.92866 -4.45359
41 1 -4.80166 -14.4988 59.2686 -4.34331
42 1 -4.88833 -12.2594 -2.3475 -4.46959
43 1 -2.42414 -14.647 -2.48063 -4.49428
44 1 -2.1793 -12.3751 59.1888 -4.3902
45 1 -3.60067 -13.2511 -4.08605 -4.45753
46 1 -3.66234 -10.9622 -0.786148 -4.58656
47 1 -0.945601 -13.473 -1.06814 -4.56552
48 1 -1.21813 -10.976 -4.06937 -4.36687
49 1 0.445834 -14.7537 59.4492 -4.48205
50 1 0.293163 -11.9354 -2.41345 -4.47361
51 1 2.49904 -14.6468 -2.43902 -4.54668
52 1 2.84171 -12.1417 59.3923 -4.50008
53 1 1.4763 -13.241 -4.00945 -4.51246
54 1 1.35754 -10.8185 -0.696672 -4.48178
55 1 3.82323 -13.2016 -1.02095 -4.55163
56 1 4.00311 -10.6798 -4.00296 -4.42578
57 1 5.20168 -14.5992 59.4356 -4.57095
58 1 5.36147 -11.9728 -2.49432 -4.43152
59 1 7.62036 -14.975 -2.41497 -5.00982
60 1 7.83911 -12.2823 59.4677 -4.38309
61 1 6.50646 -13.5491 -3.97892 -4.3353
62 1 6.0308 -10.9926 -0.381591 -4.49427
63 1 8.83207 -13.4015 -0.931819 -4.38773
64 1 8.33798 -10.9266 -3.52318 -4.43966
65 1 9.78744 -15.1702 59.6233 -4.16885
66 1 9.91972 -11.7845 -2.04816 -4.31178
67 1 12.1244 -14.5077 -2.48394 -4.19511
68 1 11.5853 -11.4868 -4.82792 -4.41665
69 1 10.4869 -13.396 -3.82325 -4.90617
70 1 10.9686 -11.164 0.0206085 -4.42751
71 1 13.6532 -12.8979 -1.33762 -4.14777
72 1 13.4561 -10.5944 -2.34618 -4.87273
73 1 15.4246 -12.009 -2.64723 -4.08835
74 1 15.7313 -10.0352 -1.4222 -4.18883
75 1 -17.1481 -7.41111 58.6186 -4.09439
76 1 -18.2324 -5.93466 -0.0890944 -4.22329
77 1 -15.7437 -9.0352 -0.839466 -4.14739
78 1 -16.267 -6.29326 -4.19106 -4.20014
79 1 -14.0876 -10.221 -5.34527 -4.29281
80 1 -14.8698 -7.37978 -2.41454 -4.40967
81 1 -12.1596 -9.97892 -2.435 -4.52833
82 1 -12.162 -7.31577 59.4101 -4.48561
83 1 -13.3568 -8.43315 -3.82991 -4.56889
84 1 -13.1713 -6.42931 -0.964539 -4.4405
85 1 -10.9523 -8.84837 -0.732999 -4.49256
86 1 -10.9436 -6.08976 -3.83485 -4.47296
87 1 -9.28646 -9.72035 59.6002 -4.37411
88 1 -9.70524 -7.41249 -2.16112 -4.51725
89 1 -6.95442 -9.72004 -2.09329 -4.54583
90 1 -7.39671 -7.13487 -5.3076 -4.38585
91 1 -8.28258 -8.57241 -3.60783 -4.47165
92 1 -8.60265 -6.20669 -0.54871 -4.49864
93 1 -5.84714 -8.29433 -0.596251 -4.47123
94 1 -6.09275 -6.12494 -3.6787 -4.4945
95 1 -4.47526 -9.63103 59.5516 -4.49464
96 1 -4.56244 -7.13805 -2.34056 -4.38555
97 1 -2.23591 -9.71556 -2.15328 -4.37774
98 1 -2.04853 -7.04948 59.4164 -4.44593
99 1 -3.25876 -8.26989 -3.91781 -4.439
100 1 -3.55423 -5.9725 -0.506873 -4.51403
101 1 -1.18876 -8.51607 -0.391632 -4.50115
102 1 -1.20959 -5.8136 -3.65331 -4.36203
103 1 0.515043 -9.61076 59.6582 -4.35363
104 1 -0.123587 -7.06893 -1.96467 -4.43366
105 1 2.78002 -9.48834 -2.185 -4.45674
106 1 2.70342 -6.99512 -5.28828 -4.37114
107 1 1.28199 -8.18656 -3.55728 -4.44683
108 1 1.18312 -6.11246 -0.263031 -4.4423
109 1 3.75214 -8.25509 -0.465505 -4.40481
110 1 3.70184 -5.72024 -3.57534 -4.40594
111 1 5.43027 -9.58446 59.3078 -4.40983
112 1 5.02611 -6.913 -1.94931 -4.40034
113 1 7.30571 -9.61468 -1.79642 -4.45086
114 1 7.52326 -7.26445 -5.03094 -4.38285
115 1 6.19809 -8.4227 -3.60451 -4.30201
116 1 6.12186 -5.89409 -0.0676446 -4.52925
117 1 8.60446 -8.46677 -0.0798518 -4.49106
118 1 8.30781 -5.94615 -3.05912 -4.3074
119 1 9.95574 -9.75147 -4.67817 -4.44995
120 1 9.83547 -7.04087 -1.54536 -4.49967
121 1 12.0285 -9.19099 -1.00955 -4.37675
122 1 11.9914 -7.19033 -4.79667 -4.42687
123 1 11.0058 -8.36818 -3.06129 -4.35087
124 1 10.9915 -5.77317 0.228072 -4.39979
125 1 13.5481 -8.02492 0.204545 -4.54962
126 1 13.1688 -5.98406 -3.21437 -4.63165
127 1 14.3993 -9.51654 -4.27719 -4.48048
128 1 14.6255 -7.06088 -1.69617 -4.64498
129 1 16.1732 -6.26132 -4.70767 -4.45682
130 1 16.0947 -8.30417 -3.11022 -4.39606
131 1 15.6693 -5.01969 -0.923745 -4.46998
132 1 18.058 -4.81856 -4.77193 -3.98001
133 1 -17.8173 -5.27499 -2.62823 -4.09711
134 1 -17.1601 -2.43633 -5.23464 -4.97267
135 1 -18.5342 -3.04127 -3.22299 -4.24051
136 1 -17.4026 -2.00224 -1.39665 -4.53614
137 1 -16.2207 -4.92963 -0.890347 -4.4241
138 1 -15.9697 -0.684612 -4.15992 -4.55285
139 1 -14.7905 -4.96203 -5.20674 -4.56173
140 1 -15.143 -2.22926 -2.48677 -4.44393
141 1 -12.2443 -4.74147 -2.46895 -4.5084
142 1 -12.3391 -2.18039 59.3767 -4.47067
143 1 -13.563 -3.37809 -3.86719 -4.44038
144 1 -13.6513 -1.06445 -0.991938 -4.47806
145 1 -10.8853 -3.79554 -0.7207 -4.48969
146 1 -10.8969 -1.1066 -4.10894 -4.45484
147 1 -9.87761 -4.94247 59.4323 -4.46555
148 1 -9.82245 -2.2185 -2.22 -4.45807
149 1 -7.61112 -4.91997 -2.25085 -4.48856
150 1 -7.21075 -2.20916 -5.28711 -4.50793
151 1 -8.69192 -3.53738 -3.90801 -4.50537
152 1 -8.53997 -0.933181 -0.794003 -4.48883
153 1 -6.25412 -3.73412 -0.616528 -4.50922
154 1 -5.97296 -0.789769 -3.82485 -4.52534
155 1 -4.66894 -4.72904 -5.23244 -4.3987
156 1 -5.05578 -2.24322 -2.06061 -4.50776
157 1 -2.25918 -4.52512 -1.87521 -4.50543
158 1 -2.41852 -2.21996 -5.34444 -4.44585
159 1 -3.58737 -3.46287 -3.57722 -4.47399
160 1 -3.70788 -1.04142 -0.490542 -4.52722
161 1 -0.977625 -3.10431 -0.404747 -4.44445
162 1 -1.28245 -0.735836 -3.77446 -4.50048
163 1 0.136136 -4.62485 -5.22386 -4.44189
164 1 -0.0553791 -1.82989 -2.13864 -4.48423
165 1 2.34129 -4.67426 -1.83886 -4.46787
166 1 2.38351 -2.17788 -5.28424 -4.43331
167 1 1.27855 -3.26503 -3.51831 -4.44427
168 1 1.18827 -0.684578 -0.447887 -4.39857
169 1 3.68281 -3.32468 -0.333538 -4.4984
170 1 3.72381 -0.928136 -3.64036 -4.49978
171 1 5.01205 -4.60983 59.6488 -4.41294
172 1 4.92178 -2.15592 -2.06068 -4.43795
173 1 7.52596 -4.48975 -1.45012 -4.28339
174 1 7.33622 -2.24013 -4.88821 -4.49539
175 1 6.15648 -3.66642 -3.46818 -4.35738
176 1 5.99162 -0.9899 -0.190103 -4.38739
177 1 8.53823 -3.2393 0.193311 -4.43591
178 1 8.54363 -0.889557 -3.21317 -4.4438
179 1 9.54094 -4.76326 -4.83919 -4.38811
180 1 9.7108 -1.98419 -1.51821 -4.38642
181 1 12.0885 -4.62351 -1.6054 -4.46792
182 1 11.9542 -2.21842 -4.59277 -4.38455
183 1 10.663 -3.47058 -3.13078 -4.48628
184 1 11.0717 -1.19855 0.285471 -4.25519
185 1 13.8055 -3.87663 -0.25903 -4.43559
186 1 12.8469 -1.00679 -2.74448 -4.44274
187 1 14.4454 -4.68341 -4.77981 -4.51145
188 1 14.5975 -2.00283 -1.43236 -4.51387
189 1 17.2594 -3.98532 -2.64554 -4.52839
190 1 16.7136 -1.80081 -5.02646 -4.64943
191 1 15.3153 -2.97727 -3.50865 -4.6597
192 1 15.8686 -0.727842 0.187711 -4.26256
193 1 18.3154 -2.06674 -1.57763 -3.84748
194 1 18.2277 -0.248526 -3.82613 -3.71921
195 1 -19.2741 -1.25168 -4.56477 -4.37956
196 1 -18.1521 0.343326 -1.12649 -4.29703
197 1 -17.725 2.68006 -5.34682 -4.21339
198 1 -17.9938 0.529258 -3.72289 -4.24446
199 1 -17.6816 4.44179 0.366829 -4.29782
200 1 -16.0755 1.27974 -0.497942 -4.53307
201 1 -16.2638 3.8152 -3.8286 -4.23846
202 1 -14.8436 0.262956 59.1424 -4.5144
203 1 -14.9975 2.25334 -2.41164 -4.47047
204 1 -12.2184 0.162016 -2.54958 -4.49072
205 1 -12.257 2.57996 59.3439 -4.4955
206 1 -13.5554 1.39233 -4.145 -4.45954
207 1 -13.7032 3.8014 -1.18948 -4.37173
208 1 -11.1832 1.37367 -0.879159 -4.47123
209 1 -11.1405 4.15166 -4.17389 -4.46216
210 1 -9.78695 0.168451 59.2474 -4.57213
211 1 -10.0468 2.77768 -2.44609 -4.48468
212 1 -7.49314 0.370535 -2.42376 -4.4886
213 1 -7.44368 2.62813 59.3474 -4.43635
214 1 -8.72956 1.54653 -4.10277 -4.44121
215 1 -8.64194 3.97307 -0.957194 -4.48766
216 1 -6.1385 1.34406 -0.717656 -4.49365
217 1 -6.06322 3.90974 -4.09618 -4.43032
218 1 -4.82589 0.519269 59.5865 -4.40417
219 1 -5.08278 2.96782 -2.1626 -4.40855
220 1 -2.49109 0.410736 -2.00827 -4.46615
221 1 -2.3068 2.59822 -5.20534 -4.46473
222 1 -3.88795 1.66141 -3.62945 -4.41741
223 1 -3.57892 3.77027 -0.484468 -4.41155
224 1 -1.13246 1.57079 -0.384133 -4.44635
225 1 -1.14755 4.0225 -3.7126 -4.51798
226 1 0.330795 0.429491 -5.07244 -4.46943
227 1 0.0705059 3.10733 -1.90865 -4.44284
228 1 2.5689 0.462997 -2.11182 -4.4773
229 1 2.62385 3.02476 -4.9988 -4.45886
230 1 1.27251 1.8679 -3.42653 -4.54902
231 1 1.57772 4.18696 -0.367865 -4.46048
232 1 3.53855 1.71881 -0.217298 -4.43074
233 1 4.00091 4.38776 -3.4684 -4.39684
234 1 5.01667 0.465147 -4.92719 -4.5184
235 1 5.07142 3.0334 -1.61306 -4.33403
236 1 7.25415 0.404005 -1.64876 -4.43982
237 1 7.61641 3.17096 -4.83125 -4.38435
238 1 6.28282 1.80421 -3.34645 -4.42542
239 1 5.94007 3.8796 0.400068 -4.40031
240 1 8.47572 1.11931 0.283576 -4.39416
241 1 8.65389 4.10118 -2.87425 -4.43085
242 1 9.8522 0.504247 -4.78656 -4.42018
243 1 9.57807 2.63769 -1.31206 -4.45083
244 1 12.0158 0.440147 -1.0759 -4.42517
245 1 12.1508 3.44042 -4.08974 -4.88563
246 1 10.9254 1.59153 -2.89104 -4.25596
247 1 10.7327 3.61004 0.641931 -4.46234
248 1 13.3063 1.52837 0.627525 -4.48074
249 1 13.5013 4.09131 -2.19072 -4.56593
250 1 14.1134 0.142932 -4.38202 -4.39059
251 1 14.7169 2.44564 -1.02071 -4.3772
252 1 17.4446 0.112792 -1.48534 -4.80558
253 1 16.0473 2.61791 -4.18249 -4.35469
254 1 15.5247 0.92163 -2.68522 -4.25459
255 1 16.3294 4.10977 0.0272113 -4.83241
256 1 18.8031 0.912869 0.473165 -4.12125
257 1 17.7145 4.26035 -4.15173 -4.29288
258 1 18.1239 1.98056 -4.91536 -4.32527
259 1 -17.5554 5.1333 -2.03061 -3.98614
260 1 -16.7356 8.08919 57.9633 -4.41139
261 1 -17.4538 6.63523 -5.32937 -4.07082
262 1 -16.6747 7.19162 -1.04204 -4.26465
263 1 -16.3539 8.8305 -4.67451 -4.05493
264 1 -15.461 5.13351 59.2699 -5.16242
265 1 -15.1984 7.67605 -2.96105 -4.47043
266 1 -12.5926 5.24256 -2.73231 -4.47524
267 1 -12.4561 7.66451 59.2775 -4.53354
268 1 -13.8877 6.32328 -4.46165 -4.2754
269 1 -13.7245 9.07433 -1.5327 -4.49444
270 1 -11.3091 6.26775 -1.00707 -4.50523
271 1 -10.9876 8.896 -4.42609 -4.50572
272 1 -9.76564 5.02406 59.0862 -4.48815
273 1 -10.1308 7.56211 -2.6913 -4.44591
274 1 -7.3172 5.33482 -2.55205 -4.45176
275 1 -7.41415 7.63491 59.2073 -4.50928
276 1 -8.73873 6.36076 -4.25149 -4.49125
277 1 -8.43728 8.20947 -1.16876 -4.45953
278 1 -5.79641 6.27471 -0.92204 -4.40131
279 1 -6.10439 8.71783 -4.23971 -4.48529
280 1 -4.77491 5.10848 59.3809 -4.51287
281 1 -4.82221 7.74604 -2.39158 -4.37392
282 1 -2.51744 5.25959 -2.14517 -4.41185
283 1 -2.2006 7.9495 59.5449 -4.51401
284 1 -3.48608 6.46232 -4.09993 -4.43205
285 1 -3.42496 8.76388 -0.642383 -4.47589
286 1 -1.15937 6.32082 -0.508942 -4.4006
287 1 -0.937354 9.09946 -3.81622 -4.48888
288 1 0.167984 5.45968 -5.19299 -4.46362
289 1 -0.0415401 7.84937 -2.04004 -4.31317
290 1 2.89968 5.68584 -1.75411 -4.287
291 1 3.07106 8.07559 -4.94793 -3.95966
292 1 1.51778 6.72093 -3.54307 -4.45566
293 1 0.914049 8.78473 0.107632 -4.3788
294 1 3.67157 6.63825 0.500741 -4.3524
295 1 3.72117 9.10744 -2.30351 -4.24031
296 1 5.39759 5.87552 -4.8641 -4.28563
297 1 5.16508 7.7477 -1.0279 -4.66694
298 1 7.27641 5.24739 -1.17982 -4.44848
299 1 8.54495 8.66993 58.8232 -3.65752
300 1 6.48456 6.7908 -2.79553 -4.45923
301 1 6.31532 9.15935 0.526803 -4.31522
302 1 8.40426 6.63573 0.490088 -4.37198
303 1 8.10215 8.52434 -3.2898 -3.93434
304 1 10.5071 5.10413 -4.05517 -4.21499
305 1 9.50083 7.62324 -1.37113 -4.37905
306 1 11.8813 5.1392 -0.668041 -4.5686
307 1 12.3255 7.87178 58.1114 -4.60936
308 1 11.4584 6.62129 -2.43732 -4.34543
309 1 11.0588 8.67534 1.79559 -4.4142
310 1 13.3797 5.70477 1.11118 -4.62045
311 1 12.4122 10.3565 58.5918 -4.13668
312 1 13.3538 4.98837 59.4768 -4.376
313 1 14.596 7.14057 -0.318372 -4.34994
314 1 17.0745 5.07781 -1.9406 -3.76179
315 1 15 6.65118 -5.04034 -4.2219
316 1 14.944 5.90587 -2.54628 -4.38261
317 1 15.7746 7.78586 1.66784 -4.25757
318 1 18.3113 5.15379 0.659815 -3.88424
319 1 -15.1221 13.0451 -0.199352 -4.17349
320 1 -15.1151 10.6813 59.2402 -4.44377
321 1 -14.6155 13.5019 -2.58323 -4.18114
322 1 -12.4069 10.2125 -3.14728 -4.55276
323 1 -12.4721 12.7888 59.3252 -4.65105
324 1 -13.8069 11.7952 -4.08647 -4.47533
325 1 -12.8435 13.7946 -0.859483 -4.90681
326 1 -10.6731 11.012 -1.60706 -4.34697
327 1 -11.2658 14.3391 -4.39427 -4.61139
328 1 -9.75669 10.2844 59.1083 -4.58692
329 1 -10.0162 12.6723 -3.17633 -4.50347
330 1 -7.61707 9.87536 -2.80478 -4.53069
331 1 -7.22516 12.4313 58.7551 -4.45453
332 1 -8.39055 11.5627 -4.43375 -4.45834
333 1 -8.4815 13.8639 -1.83004 -4.40358
334 1 -5.88188 11.0229 -1.62218 -4.49905
335 1 -5.85573 13.802 -5.04867 -4.42431
336 1 -4.84642 10.0471 59.2227 -4.50287
337 1 -4.89632 12.6006 -3.20532 -4.51494
338 1 -2.31157 10.2765 -2.2539 -4.33999
339 1 -2.16915 12.6948 59.364 -4.5716
340 1 -3.38037 11.151 -4.26527 -4.56222
341 1 -3.36414 13.3079 -1.64096 -4.25792
342 1 -1.11425 11.1271 -0.372097 -4.43472
343 1 -0.528227 13.4457 -4.06527 -4.36424
344 1 0.555612 10.3609 -5.21228 -4.15024
345 1 0.0342119 12.5413 -1.79211 -4.44162
346 1 2.28779 10.332 -0.8936 -4.67249
347 1 3.9844 13.5205 57.7752 -4.04041
348 1 1.7672 11.4435 -2.90067 -4.28687
349 1 1.18939 13.6805 -0.0134464 -4.56688
350 1 3.37437 11.4481 0.9192 -4.63585
351 1 3.59512 12.7887 -2.47429 -4.25878
352 1 5.71682 11.1456 57.8665 -4.01356
353 1 4.9436 12.4057 -0.523973 -4.0851
354 1 7.20033 10.0452 -1.61961 -4.39929
355 1 7.39346 12.3083 56.7162 -4.61827
356 1 5.17705 10.9509 -2.48743 -4.42053
357 1 6.08853 14.0255 1.4076 -4.28783
358 1 8.50971 11.5466 1.6131 -4.52089
359 1 8.67703 13.7055 58.3266 -4.50735
360 1 10.1797 10.2308 57.4948 -4.80807
361 1 8.34111 11.9176 -0.676566 -4.36618
362 1 10.8939 9.48709 -0.514376 -4.9843
363 1 11.9116 11.8628 56.7036 -4.16498
364 1 10.5025 11.5096 -1.67039 -4.39627
365 1 10.1135 13.2929 2.0433 -4.53424
366 1 12.7433 10.1875 2.21217 -4.63676
367 1 12.1524 12.4752 -0.338811 -3.65897
368 1 14.3384 9.89224 57.4987 -3.94665
369 1 13.151 10.3565 -0.069786 -4.39561
370 1 12.8856 8.46303 -1.49993 -4.10349
371 1 -12.8906 15.182 -2.89611 -3.85346
372 1 -11.7517 15.8189 -0.29127 -3.91456
373 1 -8.87471 15.6771 58.3245 -4.41638
374 1 -7.2997 14.9964 -3.68655 -4.4929
375 1 -7.46728 17.4485 57.9446 -4.31669
376 1 -8.07798 16.8941 -4.6664 -4.31471
377 1 -5.99282 15.8038 -1.91261 -4.65033
378 1 -5.91759 17.4903 -5.28612 -4.26612
379 1 -4.65618 15.6685 58.8955 -4.94268
380 1 -4.72258 17.3986 -3.18142 -4.49357
381 1 -2.1228 14.8164 -2.9749 -4.46012
382 1 -1.6369 17.7262 59.1686 -3.82667
383 1 -3.07005 16.2957 -4.45751 -4.36871
384 1 -4.80049 18.6919 -1.11029 -3.86758
385 1 -1.82966 15.989 -0.975008 -4.51707
386 1 -0.372451 18.5237 -3.69581 -4.32524
387 1 0.623933 14.6238 59.0578 -3.43298
388 1 -0.128092 17.4938 -1.61116 -4.68009
389 1 2.84861 14.808 -1.19039 -4.39343
390 1 3.14518 17.5269 -2.86957 -4.40261
391 1 1.38126 15.989 -2.55068 -4.58617
392 1 0.798097 18.5872 0.28886 -4.49811
393 1 3.31102 16.0097 0.730286 -4.54994
394 1 2.62966 19.1846 -1.0468 -4.22135
395 1 5.32687 15.2167 56.7023 -4.64957
396 1 4.57225 17.9508 -0.043927 -4.4597
397 1 7.45206 16.8832 58.9084 -4.61
398 1 8.79442 17.8895 57.2876 -4.24245
399 1 6.58357 14.6687 58.6326 -4.08154
400 1 3.99717 18.7078 2.00071 -3.70395
401 1 7.29009 15.8928 2.20978 -4.52357
402 1 9.19066 14.9408 56.3211 -4.52065
403 1 10.0369 13.5392 -0.333734 -4.42617
404 1 9.54858 15.95 58.4105 -4.48562
405 1 1.82002 19.3651 -3.32349 -4.27729
406 1 -11.6756 -15.2834 0.670887 -4.37497
407 1 -7.44764 -17.4034 0.808267 -3.75312
408 1 -8.65239 -15.9477 5.27894 -3.6095
409 1 -5.94349 -18.3246 5.8894 -4.07286
410 1 -6.08465 -16.0501 2.22942 -4.59657
411 1 -4.93855 -17.3378 3.87553 -4.53652
412 1 -2.75244 -18.0849 0.294055 -4.07844
413 1 -3.06362 -18.2422 2.67465 -4.03823
414 1 -3.40971 -15.8758 4.83405 -4.49368
415 1 -1.5095 -19.0503 4.50081 -4.14204
416 1 -1.47462 -16.6251 1.80466 -5.05235
417 1 1.06564 -20.0303 -2.11285 -4.14895
418 1 0.0856784 -17.7368 3.37868 -4.27743
419 1 2.49598 -17.5661 0.139456 -4.5315
420 1 0.614929 -18.4861 1.20515 -4.02788
421 1 0.855574 -15.8275 4.58406 -4.46193
422 1 4.08516 -18.4529 5.07624 -4.46601
423 1 3.7151 -16.0435 1.60794 -4.52213
424 1 5.04272 -17.4092 3.03647 -4.52948
425 1 7.57525 -17.4228 0.0127927 -4.42056
426 1 7.30753 -17.1244 2.51138 -4.20434
427 1 5.35739 -15.5822 4.57569 -4.65797
428 1 8.23311 -15.5437 1.24443 -4.41229
429 1 11.9885 -14.3807 7.07631 -4.18252
430 1 -16.6512 -9.49948 2.64458 -4.25732
431 1 -15.4193 -11.6641 2.67408 -4.19005
432 1 -12.5366 -13.9542 2.53381 -4.30176
433 1 -12.2733 -12.0166 1.08502 -4.37801
434 1 -14.4056 -13.1825 1.21571 -4.33358
435 1 -13.8437 -11.3663 4.48849 -4.97226
436 1 -11.3092 -14.0082 4.64994 -4.46691
437 1 -10.83 -10.8552 2.54536 -4.54516
438 1 -9.27066 -14.9059 0.673357 -4.21925
439 1 -9.76903 -12.3355 4.16632 -4.50989
440 1 -7.24569 -14.5998 3.73119 -4.60664
441 1 -7.05994 -12.1843 0.68757 -4.49679
442 1 -8.55043 -13.3133 2.20896 -4.46348
443 1 -8.74839 -10.7162 5.56529 -4.44754
444 1 -6.24647 -13.2264 5.27211 -4.50325
445 1 -5.9246 -10.9438 2.33106 -4.5334
446 1 -4.57284 -15.1424 0.656321 -4.50982
447 1 -4.65959 -12.3225 3.79071 -4.44746
448 1 -2.04736 -14.5929 3.37614 -4.22726
449 1 -2.13932 -12.2558 0.607062 -4.51602
450 1 -3.56785 -13.5091 2.05728 -4.5827
451 1 -3.7383 -11.0277 5.67654 -4.44372
452 1 -1.46557 -13.2572 5.32875 -4.47972
453 1 -1.36877 -11.0226 2.42414 -4.42368
454 1 -0.0808143 -15.0062 0.511138 -4.3112
455 1 0.081317 -12.19 3.97497 -4.3692
456 1 2.50737 -14.8219 3.24797 -4.57823
457 1 2.66577 -12.2594 0.754809 -4.47973
458 1 1.029 -13.5243 1.99674 -4.48663
459 1 1.25774 -11.1972 5.90422 -4.26549
460 1 3.70488 -13.8314 5.00773 -4.43179
461 1 3.53047 -10.9089 2.64646 -4.50049
462 1 5.1252 -14.6071 0.348975 -4.55535
463 1 4.97415 -12.227 3.96649 -4.50914
464 1 7.28899 -14.8737 3.39849 -4.48389
465 1 7.77573 -12.0294 0.846361 -4.33405
466 1 6.17759 -13.235 2.07207 -4.54987
467 1 5.77648 -11.1061 5.96015 -4.38431
468 1 8.67965 -13.1195 6.576 -3.73631
469 1 8.63928 -11.0146 3.0741 -4.25327
470 1 10.6034 -15.7536 1.55416 -3.6517
471 1 9.99031 -12.3546 4.72687 -4.59324
472 1 12.0658 -13.521 4.64441 -4.48855
473 1 12.7814 -12.4289 0.91233 -4.61369
474 1 12.3282 -14.2575 2.43517 -3.64318
475 1 10.8706 -10.9367 6.31609 -4.64326
476 1 12.503 -12.1514 7.47611 -4.65008
477 1 14.1205 -11.1186 2.36198 -3.58213
478 1 13.7925 -11.8583 4.57823 -4.50948
479 1 14.7464 -12.3593 6.7886 -4.34073
480 1 -17.1668 -7.82514 0.92627 -4.30989
481 1 -18.604 -5.10535 6.85056 -4.32576
482 1 -16.2442 -8.84954 4.97739 -4.44029
483 1 -15.8666 -6.42195 2.26298 -4.59389
484 1 -14.7919 -9.95215 1.26104 -4.48081
485 1 -14.7217 -7.34104 3.98468 -4.63594
486 1 -12.1826 -9.78328 4.15474 -4.30804
487 1 -12.0566 -7.44167 0.886495 -4.38344
488 1 -13.3609 -8.54573 2.53628 -4.64061
489 1 -13.2621 -6.13635 5.4774 -4.55661
490 1 -11.2014 -8.6832 5.80659 -4.46074
491 1 -10.9236 -6.22758 2.64731 -4.52449
492 1 -9.5324 -9.87866 0.826027 -4.35989
493 1 -9.70482 -7.467 4.34956 -4.45294
494 1 -7.20488 -9.79107 4.00405 -4.44359
495 1 -7.25528 -7.32919 1.06028 -4.4859
496 1 -8.49493 -8.64274 2.54093 -4.43316
497 1 -8.3934 -6.11496 5.77664 -4.5496
498 1 -5.98017 -8.65463 5.68926 -4.47697
499 1 -5.99745 -5.97184 2.64855 -4.5294
500 1 -4.66653 -9.59337 0.923947 -4.50798
501 1 -4.75211 -7.24327 4.29892 -4.51022
502 1 -2.20578 -9.78385 4.30429 -4.42634
503 1 -2.27528 -7.0608 1.16388 -4.50905
504 1 -3.40793 -8.49535 2.68148 -4.50108
505 1 -3.67845 -5.89651 5.98487 -4.46399
506 1 -1.19219 -8.54165 6.11764 -4.45818
507 1 -1.02733 -5.77721 2.82903 -4.44356
508 1 0.145382 -9.74075 1.03942 -4.47741
509 1 0.0984355 -7.27342 4.45216 -4.41432
510 1 2.43258 -9.75232 4.44851 -4.48271
511 1 2.64978 -7.31429 1.4013 -4.35914
512 1 1.24832 -8.4974 2.87105 -4.45657
513 1 1.15042 -5.97023 6.17909 -4.44756
514 1 3.44284 -8.3099 6.07147 -4.44982
515 1 3.43522 -5.83761 2.96941 -4.44125
516 1 4.91877 -9.56738 1.20117 -4.44766
517 1 4.80597 -7.09989 4.53402 -4.53671
518 1 7.38946 -9.76542 4.70423 -4.47632
519 1 7.21397 -7.24572 1.51706 -4.49581
520 1 6.11003 -8.55167 3.10279 -4.4753
521 1 6.17209 -5.95131 6.19268 -4.51785
522 1 8.40296 -8.43529 6.24187 -4.47984
523 1 8.58827 -6.03129 3.09887 -4.52927
524 1 9.89121 -9.70747 1.59234 -4.51777
525 1 9.76153 -7.16361 4.78391 -4.4354
526 1 12.2925 -9.91602 4.76781 -4.56047
527 1 12.2041 -6.93074 1.8419 -4.44088
528 1 11.1364 -8.45822 3.21906 -4.45868
529 1 10.9271 -6.21454 6.60447 -4.49677
530 1 13.5435 -8.55711 6.21451 -4.51171
531 1 13.3805 -5.92268 3.62109 -4.44177
532 1 15.1835 -9.53714 0.962254 -4.58847
533 1 14.9903 -7.19611 4.73773 -4.5657
534 1 15.9911 -5.51329 1.51036 -4.48638
535 1 15.7721 -7.72605 2.48345 -3.50006
536 1 16.3844 -6.195 6.44967 -3.99244
537 1 17.5731 -4.09668 2.48342 -4.34631
538 1 -17.4472 -5.31409 3.6082 -4.56968
539 1 -16.6688 -3.11314 0.592973 -4.30803
540 1 -18.35 -4.22201 1.62967 -4.42753
541 1 -18.8818 -2.12841 2.88665 -3.98924
542 1 -15.973 -3.90139 4.76355 -4.59952
543 1 -16.6928 -1.38754 2.18135 -5.29104
544 1 -14.5316 -5.44739 0.701645 -4.42757
545 1 -14.7928 -2.41789 3.51621 -4.2051
546 1 -12.3023 -4.69099 3.77559 -4.4977
547 1 -12.1215 -2.25729 0.530593 -4.54109
548 1 -13.4166 -3.65351 1.92278 -4.48705
549 1 -13.7586 -1.4451 5.45603 -4.44537
550 1 -10.7735 -3.61369 5.42835 -4.41384
551 1 -11.0657 -1.1799 2.35198 -4.45069
552 1 -9.84935 -4.93563 1.01091 -4.48058
553 1 -9.64687 -2.2984 3.8512 -4.44879
554 1 -7.21735 -4.65621 4.09776 -4.38639
555 1 -7.33828 -2.25057 0.78653 -4.46677
556 1 -8.42631 -3.61167 2.3193 -4.52475
557 1 -8.64111 -1.01872 5.69686 -4.39301
558 1 -6.16472 -3.5014 5.90778 -4.45981
559 1 -6.15611 -1.03095 2.6259 -4.43195
560 1 -4.83881 -4.62633 0.990541 -4.43418
561 1 -4.90625 -2.16302 4.30275 -4.4727
562 1 -2.38581 -4.7471 4.4682 -4.42881
563 1 -2.36772 -2.06831 1.25202 -4.4464
564 1 -3.52487 -3.50685 2.814 -4.44473
565 1 -3.8091 -0.96682 6.04897 -4.41136
566 1 -1.39454 -3.2921 6.12391 -4.44153
567 1 -1.01524 -1.00321 2.98175 -4.39791
568 1 0.242424 -4.5688 1.23148 -4.43629
569 1 0.180824 -2.13967 4.68134 -4.46914
570 1 2.37216 -4.56897 4.57843 -4.38188
571 1 2.41526 -2.06314 1.22366 -4.4024
572 1 1.36999 -3.31397 2.97917 -4.35311
573 1 1.29147 -0.798406 6.25944 -4.34995
574 1 3.53855 -3.34006 6.20457 -4.46442
575 1 3.53705 -0.858006 2.88606 -4.45313
576 1 4.78005 -4.5587 1.3614 -4.48555
577 1 4.82984 -2.03641 4.6496 -4.42878
578 1 7.49211 -4.63609 4.74544 -4.45053
579 1 7.15366 -2.00774 1.67136 -4.46933
580 1 6.09646 -3.51783 3.11207 -4.49592
581 1 6.15399 -1.0797 6.43495 -4.42255
582 1 8.70413 -3.5061 6.58709 -4.44055
583 1 8.52633 -0.890227 3.38342 -4.44303
584 1 9.7667 -4.40119 1.78778 -4.44169
585 1 9.77285 -1.94477 5.2253 -4.48805
586 1 12.1563 -4.74552 5.23479 -4.58805
587 1 12.3771 -2.43303 2.21726 -4.17521
588 1 10.9144 -3.4285 3.78541 -4.52739
589 1 11.1084 -1.02724 7.04011 -4.50252
590 1 13.708 -3.5648 6.70097 -4.47765
591 1 13.229 -1.13238 3.8778 -4.4298
592 1 14.1882 -4.11659 2.17012 -4.98653
593 1 14.9632 -1.98418 5.45297 -4.49104
594 1 16.9585 -4.40386 4.88707 -3.46324
595 1 17.5699 -2.07813 0.809505 -4.30538
596 1 15.8824 -2.83195 3.4374 -4.4425
597 1 16.3421 -0.328504 6.32728 -4.36129
598 1 18.3106 -1.17326 7.16432 -4.44819
599 1 18.649 -0.608765 2.33586 -4.33999
600 1 -18.6716 -0.309483 1.27383 -4.02956
601 1 -16.9263 0.0532386 4.16076 -4.45479
602 1 -16.7884 2.52269 1.33375 -4.62182
603 1 -18.2775 1.46625 2.78294 -4.52303
604 1 -17.9382 3.32674 4.48201 -4.43548
605 1 -15.6493 1.4119 5.65493 -4.61227
606 1 -16.1211 3.9295 3.1124 -4.55682
607 1 -14.961 -0.277577 0.82823 -4.29372
608 1 -14.4768 2.45667 3.8825 -4.47123
609 1 -12.3217 -0.134363 4.11783 -4.48144
610 1 -12.6206 2.51684 0.664523 -4.38933
611 1 -13.5086 0.972972 2.34534 -4.41463
612 1 -13.3131 3.64123 5.6067 -4.55978
613 1 -10.9641 1.12348 5.62771 -4.4294
614 1 -11.4706 3.89571 2.36714 -4.36479
615 1 -9.97586 0.207011 0.837927 -4.49799
616 1 -10.1144 2.50516 3.95703 -4.36769
617 1 -7.33218 0.461037 4.15982 -4.4185
618 1 -7.34614 2.80068 0.755989 -4.47445
619 1 -8.5995 1.43484 2.29926 -4.46626
620 1 -8.83127 3.79984 5.69826 -4.40941
621 1 -6.10909 1.6165 5.91997 -4.42554
622 1 -6.03778 3.96701 2.56368 -4.43615
623 1 -5.01138 0.259516 1.03476 -4.4709
624 1 -4.92889 2.75076 4.21892 -4.42255
625 1 -2.46361 0.237264 4.59094 -4.40636
626 1 -2.29043 2.68892 1.291 -4.45983
627 1 -3.62696 1.38552 2.70649 -4.44605
628 1 -3.86783 4.07395 5.98354 -4.49293
629 1 -1.25792 1.52891 6.35275 -4.4633
630 1 -1.086 4.06107 2.90024 -4.35003
631 1 -0.0206865 0.293088 1.29849 -4.37862
632 1 -0.0638088 2.86126 4.66419 -4.39102
633 1 2.47927 0.500187 4.49075 -4.3451
634 1 2.3939 2.95866 1.5126 -4.35438
635 1 1.1179 1.64237 2.9537 -4.47329
636 1 1.22983 3.94098 6.43588 -4.47507
637 1 3.55926 1.38602 6.45751 -4.43878
638 1 3.68757 4.0536 3.34904 -4.50281
639 1 4.87453 0.365438 1.34411 -4.45048
640 1 4.89692 2.7758 5.03115 -4.44868
641 1 7.28963 0.329681 4.96198 -4.45026
642 1 7.31604 2.52676 1.80898 -4.55084
643 1 5.8908 1.41031 3.28034 -4.4081
644 1 5.93467 4.14512 6.69624 -4.46889
645 1 8.27412 1.4043 6.85588 -4.41483
646 1 8.46035 3.77798 3.48048 -4.36428
647 1 10.0255 0.300254 1.92082 -4.42807
648 1 9.46729 2.65895 5.32596 -4.46174
649 1 12.3141 0.245937 5.52188 -4.49366
650 1 12.2664 2.82173 2.2799 -4.44716
651 1 11.0349 1.45244 3.87355 -4.4334
652 1 10.8695 3.78154 6.94175 -4.508
653 1 13.6099 1.52484 7.18001 -4.47395
654 1 13.5382 3.94734 3.91863 -4.35929
655 1 14.4608 0.025382 2.13551 -4.47175
656 1 14.8221 2.30793 5.3503 -4.35641
657 1 17.1723 0.0384359 4.16643 -4.5958
658 1 17.082 2.13469 1.30402 -4.48393
659 1 15.7143 1.58819 3.28369 -4.52708
660 1 16.3458 3.62057 6.67272 -4.37373
661 1 18.6973 1.67468 4.91828 -4.45748
662 1 18.5423 3.55196 2.40511 -4.5884
663 1 19.7951 1.55323 2.7279 -4.20571
664 1 -18.1916 5.7154 4.77645 -4.44623
665 1 -16.3273 7.62971 1.34903 -4.58442
666 1 -17.4914 5.77858 2.37238 -4.24936
667 1 -15.9877 6.21284 5.48245 -4.60266
668 1 -15.7063 9.92449 1.73333 -3.6461
669 1 -15.5892 5.12997 -0.427914 -4.80644
670 1 -14.3676 6.76158 3.78246 -4.42046
671 1 -12.6345 5.20114 3.97975 -4.55388
672 1 -12.7476 7.75423 0.190057 -4.57688
673 1 -14.3046 6.46906 1.38447 -4.32534
674 1 -13.2604 8.49198 4.93056 -4.36982
675 1 -11.0682 6.12631 5.48196 -4.41671
676 1 -11.1606 8.4789 1.77554 -4.30729
677 1 -10.1043 4.99139 0.663412 -4.44131
678 1 -10.0182 7.33094 3.58093 -4.50147
679 1 -7.49981 5.07253 4.07975 -4.44317
680 1 -7.28023 7.21467 0.649653 -4.42862
681 1 -8.65916 6.08552 2.25842 -4.47788
682 1 -8.97244 9.0379 4.81731 -4.18938
683 1 -6.51259 6.55064 5.7544 -4.52319
684 1 -5.78775 8.31066 2.05986 -4.42348
685 1 -4.76071 5.26948 1.04266 -4.37989
686 1 -4.9399 7.58078 4.24041 -4.30011
687 1 -2.38868 5.20939 4.64304 -4.42025
688 1 -2.31444 7.45928 1.11739 -4.27691
689 1 -3.61402 6.23079 2.86359 -4.35095
690 1 -4.11993 8.88282 6.1136 -4.25572
691 1 -1.35443 6.45564 6.35854 -4.49892
692 1 -1.5305 8.66867 3.09928 -4.42784
693 1 0.141392 5.2893 1.18858 -4.33974
694 1 -0.122459 7.61108 4.82287 -4.38732
695 1 2.46691 5.43324 4.95045 -4.41275
696 1 2.37321 8.12378 1.86092 -4.45048
697 1 1.30605 6.44184 3.13531 -4.37305
698 1 0.740252 8.9289 6.49156 -4.46806
699 1 3.62708 6.50212 6.85334 -4.53746
700 1 3.54273 8.84507 3.82858 -4.43646
701 1 4.99845 5.48211 1.94467 -4.44638
702 1 4.94389 7.79886 5.43614 -4.525
703 1 7.54034 5.22353 5.31559 -4.43324
704 1 7.30044 7.8001 2.25022 -4.29689
705 1 6.22266 6.44306 3.90355 -4.42632
706 1 6.15245 8.97686 7.13953 -4.48851
707 1 8.49357 6.60933 7.01276 -4.40506
708 1 8.45921 8.62304 4.18072 -4.60274
709 1 9.64107 5.20203 2.00753 -4.43878
710 1 10.0146 7.54243 5.46434 -4.39477
711 1 12.297 5.04198 5.63733 -4.41838
712 1 12.4731 6.93985 2.87904 -4.46275
713 1 10.8361 5.85353 4.0916 -4.50574
714 1 11.9824 8.96669 8.54534 -4.48908
715 1 13.6721 6.2235 7.29474 -4.32771
716 1 13.4951 8.05896 4.55584 -4.208
717 1 15.133 4.55105 2.14661 -4.32668
718 1 15.2342 7.84992 6.31113 -4.73685
719 1 17.6385 3.85676 4.62137 -4.32297
720 1 17.8703 6.78126 2.2593 -4.34295
721 1 15.9722 6.27733 3.45116 -4.46304
722 1 16.7706 9.24663 7.54668 -3.9922
723 1 18.0259 6.15692 4.65205 -4.22783
724 1 -14.6455 10.9987 3.5284 -4.2928
725 1 -14.9424 10.7318 -0.361709 -4.69146
726 1 -13.9062 12.7048 1.92086 -4.4751
727 1 -12.6814 9.83232 3.01432 -4.96797
728 1 -11.2083 12.4417 0.0659853 -4.10346
729 1 -12.8542 11.0006 0.830298 -4.52759
730 1 -12.3526 13.7928 3.28974 -4.08105
731 1 -10.8304 10.6534 4.3797 -4.39433
732 1 -10.3269 13.92 1.85852 -5.32251
733 1 -9.79924 9.54309 0.199488 -4.54116
734 1 -9.62489 11.7964 2.72366 -4.41742
735 1 -7.20106 9.63236 3.33236 -4.54138
736 1 -7.36585 12.2602 -0.278693 -4.52183
737 1 -8.09393 10.617 1.33816 -4.55569
738 1 -8.10522 12.6595 4.29311 -4.5992
739 1 -6.19578 11.3919 4.69349 -4.38273
740 1 -5.73444 13.3634 0.980984 -4.50198