ITEM: TIMESTEP
24000
ITEM: NUMBER OF ATOMS
4050
ITEM: BOX BOUNDS ss ss pp
-2.1235746732775702e+01 2.1182597147546847e+01
-2.1571381330769345e+01 2.1342153174633101e+01
-3.2586000000000004e-01 5.4635860000000001e+01
ITEM: ATOMS id type x y z c_peratom
1 1 -12.5856 -16.0622 1.48635 -3.89938
2 1 -8.32373 -19.182 0.245594 -4.18681
3 1 -9.18851 -17.5063 3.11926 -4.47846
4 1 -8.05513 -19.5657 2.57809 -4.40581
5 1 -6.4557 -17.8087 0.475486 -5.36583
6 1 -5.81119 -18.7978 2.6459 -4.21188
7 1 -2.94466 -18.717 -0.297712 -4.60744
8 1 -4.89885 -19.8711 0.674202 -4.18417
9 1 -3.99929 -17.8828 3.85855 -4.35969
10 1 -0.694499 -20.424 4.35167 -4.21191
11 1 -1.55139 -17.2471 1.05088 -4.42299
12 1 0.203328 -20.7107 1.29375 -4.28639
13 1 -0.422898 -18.7173 2.61418 -4.9543
14 1 3.0515 -18.5439 54.3439 -4.51579
15 1 1.65974 -19.0288 1.19506 -4.33962
16 1 1.14002 -17.2799 3.81705 -4.43954
17 1 3.14673 -19.8686 2.78276 -4.58547
18 1 4.03408 -16.9057 0.778333 -4.66592
19 1 5.08077 -18.6933 1.92874 -4.43932
20 1 8.08099 -18.5195 0.238623 -3.52412
21 1 9.70364 -18.9821 2.15721 -4.05914
22 1 6.55541 -17.4718 3.23284 -4.42402
23 1 9.57039 -16.7688 0.960437 -4.99846
24 1 11.441 -17.2882 2.50969 -4.20392
25 1 -15.6915 -13.0025 1.63832 -3.91817
26 1 -15.9857 -14.2326 3.72361 -4.01737
27 1 -14.4554 -16.0452 3.06541 -4.39869
28 1 -13.0417 -13.596 54.5798 -4.45468
29 1 -14.4909 -14.911 0.793749 -4.26035
30 1 -14.819 -12.2142 3.81082 -4.7482
31 1 -12.1177 -14.583 3.45778 -5.05974
32 1 -11.7982 -11.9866 0.901772 -4.58826
33 1 -10.7494 -15.7935 -0.0518378 -4.3912
34 1 -10.3843 -13.2906 2.32968 -4.36437
35 1 -7.67281 -16.2768 2.0832 -4.27969
36 1 -7.71929 -13.4458 54.5518 -4.59297
37 1 -9.05121 -14.5811 0.987888 -4.50581
38 1 -9.24309 -12.0284 3.90606 -4.52105
39 1 -6.45705 -15.1533 3.75085 -4.48768
40 1 -6.57202 -11.9253 0.960407 -4.5898
41 1 -5.0485 -16.0655 54.4895 -4.38557
42 1 -5.57409 -13.4398 2.54576 -4.53004
43 1 -3.05303 -16.2138 2.48387 -4.54226
44 1 -2.44955 -13.4744 -0.251314 -4.5568
45 1 -4.09212 -14.6236 1.08028 -4.57867
46 1 -3.99284 -12.206 3.89281 -4.62255
47 1 -1.45573 -14.888 3.59035 -4.56373
48 1 -1.08126 -12.1848 1.13431 -4.6258
49 1 0.133229 -16.2354 54.5156 -4.5037
50 1 0.216346 -13.5288 2.52913 -4.57801
51 1 2.65965 -16.0075 2.43526 -4.50496
52 1 2.69279 -13.3044 -0.328937 -4.61079
53 1 1.33778 -14.7673 0.894625 -4.61685
54 1 1.44185 -11.9487 3.81126 -4.55534
55 1 4.00363 -14.7918 3.80319 -4.60764
56 1 4.0162 -11.9303 1.15493 -4.61719
57 1 5.61336 -15.8505 54.4357 -4.56545
58 1 5.38907 -13.3988 2.53558 -4.54721
59 1 7.89356 -15.7098 2.41133 -4.50093
60 1 8.24116 -13.1689 54.7312 -4.48538
61 1 6.72057 -14.3636 0.981147 -4.56506
62 1 6.54156 -11.936 3.95657 -4.602
63 1 9.45059 -14.5303 3.83145 -4.6225
64 1 9.18244 -11.6946 1.16465 -4.53396
65 1 11.0494 -15.8804 54.3327 -4.34572
66 1 10.5309 -12.8953 2.63433 -4.56121
67 1 13.1131 -15.7191 1.7202 -4.44973
68 1 12.9765 -12.6026 0.230928 -4.19633
69 1 11.5283 -14.1966 0.959729 -4.64407
70 1 11.9651 -11.8521 4.12353 -4.62825
71 1 14.2791 -13.991 2.86122 -4.06387
72 1 14.8132 -11.8302 1.75077 -5.36407
73 1 16.4197 -13.6547 1.79585 -4.1004
74 1 16.9918 -11.58 2.91573 -4.12146
75 1 -18.2977 -8.15164 53.9735 -3.71038
76 1 -19.4608 -5.60335 3.6338 -3.58563
77 1 -17.2479 -9.14359 3.76797 -3.72724
78 1 -17.8018 -6.78981 0.824971 -4.51635
79 1 -16.0659 -11.0863 -0.187975 -4.14499
80 1 -16.1423 -7.97154 2.15888 -4.67733
81 1 -13.3193 -10.8071 2.33112 -4.42181
82 1 -13.242 -8.02422 -0.167904 -4.58133
83 1 -14.7317 -9.45371 1.00545 -4.63288
84 1 -14.8428 -6.55372 3.5611 -4.55054
85 1 -12.1101 -9.38613 3.81385 -4.60735
86 1 -12.048 -6.60893 1.22574 -4.50504
87 1 -10.4202 -10.7574 54.434 -4.62452
88 1 -10.7939 -8.05831 2.3809 -4.55993
89 1 -8.13927 -10.8243 2.31048 -4.60088
90 1 -7.90627 -7.77817 -0.271864 -4.60783
91 1 -9.33387 -9.27086 0.950572 -4.60569
92 1 -9.63691 -6.65309 3.95075 -4.59679
93 1 -6.79963 -9.48012 3.74081 -4.59888
94 1 -6.57461 -6.62991 1.19468 -4.55872
95 1 -5.07185 -10.5695 -0.251907 -4.62564
96 1 -5.32273 -8.19647 2.43505 -4.61537
97 1 -2.49052 -10.9469 2.49146 -4.60259
98 1 -2.41703 -8.00196 -0.247297 -4.55746
99 1 -3.67256 -9.37465 1.21818 -4.60935
100 1 -4.02265 -6.77307 3.83627 -4.59247
101 1 -1.19061 -9.50046 3.93854 -4.61823
102 1 -1.30018 -6.60429 1.18869 -4.5925
103 1 0.252547 -10.6385 -0.143162 -4.54979
104 1 -0.0181331 -8.00446 2.56831 -4.58772
105 1 2.65686 -10.4862 2.50857 -4.60276
106 1 2.86674 -7.70069 -0.0864791 -4.57074
107 1 1.42841 -9.09826 1.0926 -4.60918
108 1 1.34095 -6.80817 3.94791 -4.5928
109 1 3.94599 -9.28457 4.01468 -4.55584
110 1 4.091 -6.34279 1.26652 -4.55698
111 1 5.38327 -10.4887 -0.157454 -4.61534
112 1 5.33961 -7.97251 2.4997 -4.59201
113 1 7.92737 -10.3907 2.85873 -4.54336
114 1 7.97206 -7.81623 -0.18659 -4.58835
115 1 6.73763 -9.21976 1.24915 -4.58475
116 1 6.72983 -6.76035 3.89845 -4.62831
117 1 9.622 -9.18044 3.98504 -4.58671
118 1 9.43189 -6.49419 1.20454 -4.53634
119 1 10.6855 -10.2899 0.0534671 -4.56861
120 1 10.8097 -7.65768 2.69858 -4.57126
121 1 13.391 -10.4396 2.9197 -4.38061
122 1 13.4083 -7.89755 -0.248272 -4.56391
123 1 12.0836 -9.06175 1.43262 -4.55506
124 1 12.3393 -6.51013 4.04562 -4.58802
125 1 14.8664 -9.1187 4.22449 -4.65691
126 1 14.7771 -6.47801 1.00783 -4.57749
127 1 15.9303 -10.8242 -0.106459 -4.3662
128 1 16.0704 -7.93961 2.48099 -4.56896
129 1 18.2259 -8.32996 -0.407398 -3.49736
130 1 17.3633 -9.70557 1.4454 -4.5781
131 1 17.309 -6.25137 3.56035 -4.66429
132 1 19.0868 -6.25646 0.246113 -3.56438
133 1 -18.6031 -4.56164 1.7072 -4.37208
134 1 -18.7297 -2.17898 54.2109 -5.02145
135 1 -20.2734 -3.10856 1.00667 -3.45412
136 1 -20.6408 -1.26289 4.68946 -4.17976
137 1 -17.794 -3.90243 3.84107 -4.92244
138 1 -17.6387 -1.05077 1.05795 -4.45512
139 1 -16.3887 -5.37742 54.5233 -4.58109
140 1 -16.3465 -2.39728 2.48525 -4.29777
141 1 -13.4293 -5.17463 2.28958 -4.52478
142 1 -13.4998 -2.66557 -0.426264 -4.58949
143 1 -15.0314 -3.88126 0.939751 -4.52271
144 1 -14.9295 -1.23474 4.06148 -4.51161
145 1 -12.2745 -3.86284 4.00272 -4.55747
146 1 -12.2161 -1.52289 1.11752 -4.56659
147 1 -10.7454 -5.3233 -0.315684 -4.59246
148 1 -10.8637 -2.65761 2.70514 -4.56199
149 1 -8.06363 -5.42848 2.68996 -4.63208
150 1 -8.10925 -2.7125 -0.107323 -4.56348
151 1 -9.4176 -4.08054 1.24688 -4.56846
152 1 -9.49721 -1.28813 4.11573 -4.58303
153 1 -6.85559 -3.90291 4.0967 -4.57823
154 1 -6.74778 -1.2517 1.06488 -4.56234
155 1 -5.43067 -5.27738 -0.2949 -4.60615
156 1 -5.5648 -2.65395 2.53257 -4.59689
157 1 -2.82086 -5.31745 2.43911 -4.60047
158 1 -2.91054 -2.67902 -0.368736 -4.57833
159 1 -4.18589 -3.90026 1.19705 -4.57688
160 1 -4.15734 -1.32712 3.88919 -4.57824
161 1 -1.34734 -4.12933 3.8075 -4.61316
162 1 -1.51549 -1.38431 0.972639 -4.60696
163 1 0.0253956 -5.29153 -0.111777 -4.58404
164 1 -0.144131 -2.57767 2.45375 -4.5987
165 1 2.54061 -5.19392 2.60907 -4.57349
166 1 2.64342 -2.52098 54.7007 -4.60674
167 1 1.30324 -3.81046 1.19737 -4.6097
168 1 1.33419 -1.37 3.89608 -4.56166
169 1 4.18287 -3.98809 3.72465 -4.61046
170 1 4.09843 -1.24562 1.10433 -4.60791
171 1 5.45449 -5.22679 -0.180468 -4.59331
172 1 5.53185 -2.45947 2.53843 -4.58906
173 1 8.07941 -5.34624 2.53951 -4.58217
174 1 8.12831 -2.57018 -0.165129 -4.58536
175 1 6.79964 -3.85572 1.23529 -4.61366
176 1 6.77752 -1.1643 4.04077 -4.50032
177 1 9.43111 -4.0072 3.9399 -4.60644
178 1 9.52976 -1.05883 1.19577 -4.58877
179 1 10.7904 -5.25162 -0.1789 -4.5586
180 1 10.7919 -2.47272 2.64582 -4.58884
181 1 13.6128 -5.2017 2.53754 -4.59004
182 1 13.4358 -2.43804 -0.0220863 -4.55963
183 1 12.0442 -3.98908 1.27562 -4.61519
184 1 12.2101 -0.940107 3.8104 -4.58743
185 1 14.7033 -3.65683 3.84513 -4.57445
186 1 14.6695 -0.931892 1.32783 -4.55316
187 1 15.9872 -5.04667 54.6251 -4.44918
188 1 16.0964 -2.35469 2.43434 -4.5848
189 1 18.6506 -4.89297 2.15578 -4.64411
190 1 18.8291 -2.3053 54.5066 -4.65334
191 1 17.3496 -3.53183 0.855419 -4.64364
192 1 17.3232 -1.13821 3.9848 -4.59793
193 1 19.7468 -2.75255 2.59553 -3.64145
194 1 19.8996 -0.840981 1.07646 -4.16331
195 1 -20.7615 -1.00827 0.0797889 -4.50238
196 1 -19.5199 0.466036 3.59641 -3.89883
197 1 -18.834 2.52738 -0.0919183 -4.52874
198 1 -19.3628 0.52224 1.24136 -4.54749
199 1 -19.6428 4.76717 4.23582 -3.59215
200 1 -17.4837 1.45903 4.15405 -4.58801
201 1 -17.3762 3.98905 1.16019 -4.58443
202 1 -16.263 0.092582 54.4747 -4.62049
203 1 -16.028 2.50354 2.42061 -4.54229
204 1 -13.5516 -0.181598 2.60991 -4.53832
205 1 -13.4799 2.80105 -0.123607 -4.58572
206 1 -14.7193 1.11544 0.94146 -4.58277
207 1 -14.8892 3.96748 3.87758 -4.58343
208 1 -12.2824 1.39311 3.76244 -4.59776
209 1 -12.0803 4.15432 1.26677 -4.61102
210 1 -10.9104 0.02757 -0.236965 -4.61899
211 1 -10.6436 2.65534 2.50226 -4.54268
212 1 -8.13657 -0.0360291 2.5945 -4.55978
213 1 -8.22029 2.66584 -0.193432 -4.60492
214 1 -9.46749 1.31192 1.14152 -4.52826
215 1 -9.56546 4.23808 3.93451 -4.57797
216 1 -7.06844 1.35834 3.99024 -4.54538
217 1 -6.66167 3.89277 1.05999 -4.57125
218 1 -5.34088 0.277731 -0.336301 -4.57183
219 1 -5.47607 2.51114 2.68062 -4.59475
220 1 -2.75483 -0.155808 2.52576 -4.56062
221 1 -2.85084 2.73297 -0.213547 -4.58259
222 1 -4.01633 1.38506 1.27033 -4.57513
223 1 -4.08042 3.89332 4.00352 -4.63058
224 1 -1.40984 1.21783 3.77075 -4.56532
225 1 -1.33786 3.98917 1.11281 -4.6149
226 1 -0.144471 0.0667427 -0.345982 -4.62757
227 1 -0.10149 2.7057 2.60037 -4.5599
228 1 2.55273 -0.0480404 2.45341 -4.61506
229 1 2.59116 2.75732 -0.306495 -4.58389
230 1 1.24207 1.39023 1.08996 -4.61102
231 1 1.49714 4.15378 3.44174 -4.55445
232 1 3.91342 1.46374 3.8232 -4.63028
233 1 4.07721 4.17099 0.831666 -4.62239
234 1 5.35734 0.0965515 54.4974 -4.60622
235 1 5.22377 2.84019 2.40685 -4.61134
236 1 7.93686 -0.0479439 2.54855 -4.50076
237 1 7.97871 2.64334 -0.199857 -4.60155
238 1 6.53396 1.345 1.1773 -4.61931
239 1 6.78251 4.004 3.73885 -4.57697
240 1 9.28299 1.4833 3.8377 -4.60409
241 1 9.30201 4.25115 0.977779 -4.55968
242 1 10.8097 0.417845 -0.182758 -4.60896
243 1 10.5244 3.05015 2.59134 -4.62385
244 1 13.6516 0.541134 2.73631 -4.54067
245 1 13.1063 2.9291 -0.301824 -4.6118
246 1 12.0862 1.67108 1.39113 -4.58019
247 1 12.0592 4.36043 3.7067 -4.5425
248 1 14.9257 2.07706 3.98565 -4.53911
249 1 14.5586 4.5107 0.698378 -4.55432
250 1 15.7659 0.372755 -0.256234 -4.58309
251 1 15.895 3.18487 2.14096 -4.41034
252 1 18.4451 0.184796 2.55744 -4.5976
253 1 18.3365 2.36687 54.0497 -4.46723
254 1 17.308 1.72222 1.1051 -4.54788
255 1 17.3791 4.473 3.5247 -4.87367
256 1 19.9732 1.33107 3.96583 -4.41112
257 1 20.1203 3.7206 -0.175577 -4.4195
258 1 20.4271 1.41248 54.3001 -3.84996
259 1 -18.6148 5.62172 2.21693 -4.65018
260 1 -18.7928 8.11431 53.578 -4.66773
261 1 -19.449 6.51867 0.110275 -3.68876
262 1 -17.2908 6.98515 3.61716 -4.66944
263 1 -17.4496 9.19673 0.215417 -3.54142
264 1 -16.2203 5.31111 54.6265 -4.53128
265 1 -16.0816 8.28908 1.95009 -4.56998
266 1 -13.6161 5.44578 2.51195 -4.6074
267 1 -13.4167 8.18068 54.5516 -4.60532
268 1 -14.8305 6.7183 0.906527 -4.62512
269 1 -14.8365 9.35498 3.59416 -4.48506
270 1 -12.2324 6.75352 3.86795 -4.61441
271 1 -12.17 9.47875 1.02018 -4.59455
272 1 -10.6356 5.51456 -0.131146 -4.60946
273 1 -10.9176 8.0468 2.31922 -4.56099
274 1 -8.07338 5.35631 2.44785 -4.6041
275 1 -7.94805 8.23641 -0.439781 -4.56649
276 1 -9.18338 7.00309 1.15554 -4.58383
277 1 -9.43373 9.35161 3.70196 -4.60457
278 1 -6.71977 6.70389 3.87512 -4.61761
279 1 -6.6196 9.36817 1.05421 -4.62891
280 1 -5.37596 5.34791 -0.3332 -4.59486
281 1 -5.3489 7.95695 2.46894 -4.60552
282 1 -2.8005 5.27698 2.55923 -4.61663
283 1 -2.5857 7.98978 -0.374959 -4.60488
284 1 -4.00784 6.64704 1.04115 -4.62058
285 1 -3.79192 9.27852 3.70905 -4.56681
286 1 -1.26324 6.77448 3.71774 -4.60952
287 1 -1.1888 9.49247 0.883543 -4.61946
288 1 -0.032658 5.43789 54.7722 -4.57961
289 1 0.0595097 8.0946 2.32017 -4.56422
290 1 2.86428 5.58154 2.23991 -4.56368
291 1 2.91921 8.17422 54.6126 -4.58511
292 1 1.44192 6.87708 0.895375 -4.62516
293 1 1.45064 9.46178 3.83191 -4.5595
294 1 4.17281 7.11023 3.69712 -4.55041
295 1 4.06216 9.82617 0.943541 -4.60402
296 1 5.63036 5.43494 -0.349071 -4.58907
297 1 5.41787 8.43685 2.32765 -4.60491
298 1 8.21823 5.53708 2.44076 -4.5344
299 1 8.22 8.2253 -0.0573727 -4.5606
300 1 6.75799 6.88428 1.10431 -4.60686
301 1 7.00686 9.68482 3.54302 -4.62172
302 1 9.45052 7.0438 3.72654 -4.6584
303 1 9.5761 9.52877 1.26996 -4.62137
304 1 10.8253 5.5226 -0.308051 -4.57577
305 1 10.9804 8.53068 2.78926 -4.02898
306 1 13.3103 5.72864 2.38668 -4.57305
307 1 13.3755 8.03959 54.4175 -4.37289
308 1 11.9652 7.10606 1.07533 -4.63323
309 1 12.8967 10.2893 4.0878 -4.65712
310 1 14.4933 7.22349 3.77302 -4.43769
311 1 15.214 9.19872 0.630056 -4.69539
312 1 16.2988 5.61502 54.5216 -4.4461
313 1 16.3193 8.17395 2.4702 -4.66664
314 1 18.7966 4.85935 1.53501 -4.09499
315 1 18.8695 7.26984 53.8503 -3.77285
316 1 17.7952 6.91938 0.959495 -4.45292
317 1 17.2296 8.85576 4.64515 -4.03734
318 1 19.5706 5.41293 3.8405 -4.14879
319 1 -16.4637 13.2594 4.80437 -4.23176
320 1 -16.2555 11.0017 54.4794 -4.61208
321 1 -16.1217 14.0589 2.58488 -4.18607
322 1 -13.5187 10.8473 2.41691 -4.60311
323 1 -13.6911 13.1337 0.121459 -4.63602
324 1 -15.2041 12.0985 1.38921 -4.51641
325 1 -14.2823 14.2103 4.10863 -4.77248
326 1 -12.0708 12.0126 3.84112 -4.56282
327 1 -12.5661 14.6957 1.38469 -4.69571
328 1 -10.9149 10.8041 54.4538 -4.56745
329 1 -10.7827 13.367 2.30154 -4.54556
330 1 -8.20294 10.6514 2.25171 -4.59145
331 1 -7.88949 13.4404 54.737 -4.57588
332 1 -9.52684 11.9697 0.834828 -4.54491
333 1 -9.36538 14.4907 3.71969 -4.52844
334 1 -6.68479 11.6979 3.74594 -4.58611
335 1 -6.5379 14.7901 1.04948 -4.52991
336 1 -5.3624 10.755 54.6718 -4.57941
337 1 -5.38525 13.1666 2.4494 -4.56319
338 1 -2.56848 10.7255 2.36848 -4.57753
339 1 -2.37936 13.3498 -0.34118 -4.5767
340 1 -3.82825 12.086 1.05199 -4.58309
341 1 -4.04321 14.6523 3.94075 -4.54197
342 1 -1.3018 12.0762 3.96186 -4.55992
343 1 -1.39427 14.8559 1.18375 -4.52792
344 1 0.152389 10.8455 -0.613417 -4.60138
345 1 -0.17278 13.3876 2.47631 -4.60049
346 1 2.69643 10.9001 2.48913 -4.5949
347 1 2.7986 13.2522 -0.223696 -4.52082
348 1 1.2659 12.1414 1.07652 -4.58151
349 1 1.36809 14.6231 3.82352 -4.61902
350 1 4.15295 12.3799 3.63565 -4.59856
351 1 4.12233 14.7829 1.07829 -4.60394
352 1 5.55849 10.9518 54.5455 -4.58057
353 1 5.69593 13.8213 2.57633 -4.49401
354 1 8.4304 11.146 2.47854 -4.55937
355 1 8.09381 13.3493 54.5409 -4.58148
356 1 6.84378 12.2265 1.17629 -4.56844
357 1 6.78353 15.2309 4.168 -4.55556
358 1 9.51107 12.4336 4.02971 -4.38228
359 1 9.27168 14.6988 1.00219 -4.38751
360 1 10.8768 10.778 54.6519 -4.42035
361 1 10.9149 13.4876 2.42435 -4.74671
362 1 13.4886 10.3426 1.7919 -4.30712
363 1 13.169 12.9268 53.7633 -4.17441
364 1 12.1882 12.1786 0.945375 -4.79758
365 1 11.9847 14.933 4.12368 -4.14012
366 1 14.6888 11.7874 4.59746 -4.40025
367 1 14.0516 13.6544 0.824263 -4.31315
368 1 16.5438 10.7456 54.294 -4.22456
369 1 15.1182 12.0288 2.16453 -4.61539
370 1 16.8284 10.4936 1.70846 -4.08145
371 1 -14.4842 15.7929 2.30704 -4.15931
372 1 -13.2763 16.5082 4.41564 -4.12263
373 1 -9.9731 17.0916 53.9581 -4.37945
374 1 -8.2017 15.8706 2.28612 -4.58631
375 1 -8.08011 18.4419 -0.408013 -4.14449
376 1 -9.53683 17.5149 1.30654 -4.3928
377 1 -6.58126 16.8772 3.58314 -4.70764
378 1 -7.96912 19.2653 1.90558 -4.06716
379 1 -5.26389 16.0487 -0.421559 -4.57322
380 1 -5.61174 18.5039 2.28379 -4.61483
381 1 -2.7378 16.1341 2.43881 -4.52982
382 1 -2.26601 18.6496 54.6241 -4.65774
383 1 -4.00173 17.4419 0.965844 -4.51343
384 1 -4.30829 19.4716 3.94563 -3.62281
385 1 -1.17439 17.428 3.67433 -4.38838
386 1 -0.566733 19.9753 0.735068 -3.66434
387 1 0.236269 15.8328 -0.168803 -4.50384
388 1 0.345677 18.5898 2.26368 -4.71623
389 1 2.66731 15.9715 2.42936 -4.59413
390 1 3.09478 18.906 -0.204897 -4.66988
391 1 1.69503 17.2617 0.788648 -4.44546
392 1 1.46895 20.0255 3.66758 -4.541
393 1 3.92245 17.3469 3.9655 -4.66693
394 1 3.23137 20.4049 1.98557 -4.04969
395 1 5.28979 16.3092 -0.205135 -4.37764
396 1 5.11895 19.1569 2.86149 -4.45852
397 1 8.33507 16.7516 1.53614 -4.52769
398 1 9.48102 18.4026 0.514394 -4.44759
399 1 6.38276 17.835 1.09889 -4.41369
400 1 5.77537 20.2677 4.87642 -3.71533
401 1 8.45155 16.859 3.93568 -4.59972
402 1 10.3594 15.7288 54.1408 -4.64101
403 1 12.5056 15.1992 1.80596 -4.30678
404 1 11.4523 16.9826 0.736538 -3.59403
405 1 1.63694 20.8404 0.149648 -4.18559
406 1 -12.8553 -16.693 4.68169 -4.02261
407 1 -8.25721 -18.9228 4.82285 -3.47388
408 1 -9.33739 -17.6603 9.389 -3.72001
409 1 -5.83522 -19.8247 10.268 -3.88312
410 1 -6.83677 -17.9311 6.59885 -4.51268
411 1 -5.2121 -19.1884 8.0087 -4.54671
412 1 -2.6505 -19.326 5.41362 -4.44179
413 1 -3.10389 -20.1585 7.59533 -3.57128
414 1 -4.14505 -17.5731 9.05567 -4.57594
415 1 -1.2941 -20.052 9.16412 -4.57136
416 1 -1.37949 -17.6542 6.57465 -4.64993
417 1 1.29825 -21.2978 3.39488 -4.14056
418 1 0.247985 -19.0987 7.53931 -4.4605
419 1 2.66632 -18.6173 4.72979 -4.61023
420 1 1.28797 -20.2634 5.63931 -4.36864
421 1 1.66148 -17.6614 8.89007 -4.45731
422 1 5.25302 -19.8332 9.61144 -3.9575
423 1 4.27129 -17.715 6.25403 -4.49669
424 1 5.99817 -18.875 7.56952 -4.65378
425 1 8.49407 -18.4357 4.22929 -4.39724
426 1 8.12311 -19.1526 6.46882 -3.44708
427 1 7.01602 -17.2242 8.87591 -4.6874
428 1 9.67039 -17.4703 6.13186 -4.41112
429 1 13.3228 -16.5272 9.9812 -4.16121
430 1 -17.0642 -11.4502 7.30999 -3.80039
431 1 -15.7957 -13.405 7.8331 -3.73779
432 1 -13.3066 -15.471 6.7524 -4.18423
433 1 -13.3521 -13.4716 5.28926 -4.66512
434 1 -15.328 -14.8186 6.04505 -4.295
435 1 -14.5832 -11.8151 8.98342 -4.80433
436 1 -12.0968 -14.71 8.80394 -4.48618
437 1 -11.982 -11.9827 6.61148 -4.44224
438 1 -10.5047 -16.0774 4.53956 -4.096
439 1 -10.3958 -13.4471 7.68462 -4.60417
440 1 -8.02809 -16.3551 7.8981 -4.66151
441 1 -7.8849 -13.6707 4.91787 -4.60828
442 1 -9.21976 -15.0486 6.33037 -4.50685
443 1 -9.20725 -12.1118 9.19934 -4.59819
444 1 -6.58057 -15.0713 9.15297 -4.59387
445 1 -6.75666 -12.2642 6.4336 -4.62078
446 1 -5.41926 -16.4833 5.31883 -4.57313
447 1 -5.29131 -13.5684 7.76671 -4.60937
448 1 -2.65711 -16.2471 7.91744 -4.58197
449 1 -2.45199 -13.4942 5.10133 -4.58594
450 1 -3.95068 -14.924 6.38728 -4.60661
451 1 -4.13164 -12.2696 9.2451 -4.56601
452 1 -1.18387 -15.0471 9.2713 -4.59374
453 1 -1.20112 -12.1636 6.65941 -4.59778
454 1 -0.297929 -16.0149 5.26628 -4.56548
455 1 0.18267 -13.7364 7.83582 -4.63741
456 1 2.9631 -16.2389 7.59745 -4.61575
457 1 2.75263 -13.3141 5.16128 -4.60734
458 1 1.49441 -14.903 6.26203 -4.56634
459 1 1.37932 -12.2968 9.19897 -4.56909
460 1 4.02442 -14.968 9.26866 -4.62743
461 1 4.14003 -12.1786 6.67888 -4.5823
462 1 5.48921 -16.2828 4.86314 -4.62092
463 1 5.44098 -13.7018 7.92179 -4.58273
464 1 8.49719 -16.0319 7.51308 -4.56238
465 1 8.0123 -13.2909 5.20057 -4.6349
466 1 6.74296 -14.8852 6.37661 -4.60158
467 1 6.67076 -12.2411 9.44081 -4.57326
468 1 9.53688 -14.8197 9.30238 -4.58039
469 1 9.27746 -12.205 6.85378 -4.602
470 1 10.9673 -16.1393 4.57294 -4.43007
471 1 10.9548 -13.4072 7.98905 -4.52239
472 1 13.8642 -15.7307 7.74617 -4.13025
473 1 13.503 -13.3546 5.01243 -4.58269
474 1 12.2174 -14.8716 6.31052 -4.39888
475 1 11.9937 -11.9012 9.50189 -4.44156
476 1 14.1772 -14.171 9.63953 -4.73397
477 1 14.9303 -12.1705 6.53277 -4.50989
478 1 15.7237 -14.1058 7.78751 -4.17435
479 1 16.483 -13.3262 9.89126 -4.13176
480 1 -18.6157 -7.46298 4.89207 -3.97916
481 1 -19.2586 -6.58407 10.481 -3.48623
482 1 -17.3902 -9.83811 9.12791 -4.59114
483 1 -17.6689 -6.38445 6.91964 -4.42376
484 1 -16.1739 -10.6992 5.18326 -4.56471
485 1 -16.3072 -8.03874 7.97821 -4.60454
486 1 -13.3329 -10.3374 7.66897 -4.51873
487 1 -13.4383 -7.90249 4.97977 -4.58228
488 1 -14.8886 -9.16459 6.45095 -4.61629
489 1 -14.8861 -6.82628 9.5249 -4.57107
490 1 -12.1909 -9.30203 9.47021 -4.58195
491 1 -12.251 -6.70613 6.62902 -4.63426
492 1 -10.7014 -10.6994 5.19765 -4.61569
493 1 -10.934 -8.04257 7.98431 -4.59914
494 1 -8.05054 -10.7091 7.73955 -4.61988
495 1 -8.10152 -8.11567 5.13222 -4.61288
496 1 -9.4806 -9.29915 6.58624 -4.6039
497 1 -9.69689 -6.63679 9.40814 -4.62306
498 1 -6.74592 -9.43685 9.23469 -4.53209
499 1 -6.79267 -6.80604 6.52067 -4.58673
500 1 -5.3892 -10.766 5.21462 -4.64084
501 1 -5.36578 -8.15976 7.82956 -4.63766
502 1 -2.65212 -10.8484 7.99644 -4.57203
503 1 -2.76733 -8.19176 5.12186 -4.59603
504 1 -3.92423 -9.56445 6.61471 -4.5912
505 1 -4.02976 -6.93992 9.3268 -4.60266
506 1 -1.24599 -9.30862 9.10366 -4.5723
507 1 -1.47502 -6.79821 6.50636 -4.58353
508 1 0.161528 -10.692 5.48379 -4.5984
509 1 0.0596886 -7.93995 7.86268 -4.5442
510 1 2.70223 -10.9976 7.96779 -4.50571
511 1 2.84583 -7.89313 5.442 -4.57025
512 1 1.54804 -9.35348 6.7941 -4.58786
513 1 1.37253 -6.79051 9.37868 -4.59666
514 1 4.00243 -9.57087 9.3769 -4.59561
515 1 4.13358 -6.55502 6.7505 -4.59798
516 1 5.2481 -10.6291 5.37493 -4.60213
517 1 5.42189 -8.03521 8.11866 -4.62285
518 1 7.86475 -10.8512 8.10739 -4.54737
519 1 8.17525 -7.91315 5.39979 -4.63384
520 1 6.79577 -9.41005 6.72065 -4.57092
521 1 6.64707 -6.56405 9.4435 -4.60402
522 1 9.39066 -9.40513 9.27442 -4.56566
523 1 9.58986 -6.6144 6.74271 -4.59812
524 1 10.6081 -10.652 5.5543 -4.57848
525 1 10.9332 -8.161 8.01763 -4.61832
526 1 13.5744 -10.7961 8.07696 -4.5248
527 1 13.5381 -7.81798 5.60239 -4.54743
528 1 12.2848 -9.48095 6.67849 -4.58364
529 1 12.1426 -6.68935 9.34012 -4.59581
530 1 15.0214 -9.13927 9.17506 -4.50864
531 1 15.286 -6.48813 6.53488 -4.5541
532 1 16.3092 -10.8374 5.22696 -4.50479
533 1 16.5293 -7.84993 7.93645 -4.59079
534 1 18.5178 -7.27578 5.28242 -3.86188
535 1 17.504 -9.12461 6.19634 -3.73512
536 1 17.8167 -6.39349 9.23377 -4.66727
537 1 19.2602 -5.41547 6.45413 -3.657
538 1 -18.9752 -5.15471 8.4681 -4.6317
539 1 -18.973 -2.58359 5.64738 -4.55718
540 1 -20.2157 -3.40013 7.41475 -3.65631
541 1 -21.4112 -1.31024 7.53751 -4.02254
542 1 -17.4834 -3.82462 9.69727 -4.53726
543 1 -17.7571 -1.14035 6.92905 -4.53029
544 1 -16.3931 -5.45944 5.03348 -4.435
545 1 -16.3333 -2.63906 8.12161 -4.61119
546 1 -13.693 -5.43888 7.98469 -4.61854
547 1 -13.7115 -2.67208 5.4096 -4.60591
548 1 -15.1833 -4.12919 6.69384 -4.48773
549 1 -14.8877 -1.30222 9.4419 -4.56826
550 1 -12.2421 -4.19532 9.29781 -4.53738
551 1 -12.4285 -1.1496 6.65313 -4.57705
552 1 -10.9447 -5.1743 5.35092 -4.61208
553 1 -11.242 -2.64601 8.03568 -4.51652
554 1 -8.15319 -5.49907 8.01919 -4.56868
555 1 -8.41384 -2.69596 5.55648 -4.56605
556 1 -9.68831 -3.9969 6.95732 -4.58613
557 1 -9.62203 -1.63765 9.52767 -4.59666
558 1 -6.83647 -4.09419 9.28298 -4.62094
559 1 -6.87964 -1.27706 6.64743 -4.63384
560 1 -5.43842 -5.45059 5.1817 -4.6295
561 1 -5.51149 -2.61909 7.94778 -4.58135
562 1 -2.76379 -5.52297 8.0278 -4.61399
563 1 -2.72899 -2.69048 5.27284 -4.60373
564 1 -4.12059 -4.13663 6.63224 -4.6152
565 1 -3.96949 -1.28885 9.34344 -4.59456
566 1 -1.31665 -4.17853 9.31778 -4.60708
567 1 -1.30274 -1.35964 6.52737 -4.60861
568 1 -0.0620531 -5.50826 5.27503 -4.57543
569 1 0.0397942 -2.8712 7.83104 -4.61291
570 1 2.62784 -5.24572 8.03447 -4.61585
571 1 2.88108 -2.72944 5.22974 -4.55319
572 1 1.46268 -4.16101 6.35627 -4.5547
573 1 1.38125 -1.45331 9.26476 -4.60279
574 1 4.15921 -3.94479 9.24649 -4.60775
575 1 4.04594 -1.32631 6.57589 -4.58196
576 1 5.34343 -5.32542 5.21733 -4.59451
577 1 5.52708 -2.50203 7.96566 -4.5959
578 1 8.06029 -5.34866 7.96729 -4.5844
579 1 8.07249 -2.63937 5.30825 -4.62428
580 1 6.72922 -4.05384 6.60374 -4.62305
581 1 6.94758 -1.21748 9.24135 -4.6055
582 1 9.40676 -3.97552 9.26061 -4.607
583 1 9.55614 -1.26713 6.52825 -4.60806
584 1 10.8478 -5.30674 5.26489 -4.61665
585 1 10.8771 -2.66208 8.00667 -4.61448
586 1 13.5264 -5.36469 7.84099 -4.57975
587 1 13.3758 -2.39245 5.24215 -4.53485
588 1 12.3088 -3.90498 6.51553 -4.56603
589 1 12.1147 -1.2985 9.53111 -4.60721
590 1 14.8433 -3.95831 9.1131 -4.61378
591 1 14.7055 -1.22358 6.69936 -4.59885
592 1 16.1422 -4.86017 5.11897 -4.4376
593 1 16.2441 -2.43833 7.91966 -4.4411
594 1 18.8363 -4.37728 8.46642 -3.86108
595 1 19.2689 -2.17357 4.86292 -4.31939
596 1 17.7259 -3.64511 6.46957 -4.97603
597 1 17.397 -0.870841 9.25079 -4.47233
598 1 20.3788 -2.05622 9.42802 -3.88301
599 1 20.4107 -0.303961 5.72198 -4.32864
600 1 -21.1827 0.501602 6.09193 -3.94602
601 1 -18.6998 0.38713 8.35994 -4.64184
602 1 -18.5408 3.01369 5.55986 -4.5174
603 1 -19.866 1.97936 7.21347 -4.71015
604 1 -19.8784 3.67368 8.88371 -3.76088
605 1 -17.5626 1.85983 9.67394 -4.63566
606 1 -17.7379 4.76458 6.92761 -4.85881
607 1 -16.2784 -0.0387332 5.44421 -4.59975
608 1 -16.3887 2.89632 7.97131 -4.36919
609 1 -13.5771 0.148022 8.18918 -4.61635
610 1 -13.5703 2.66835 5.25533 -4.59987
611 1 -14.8912 1.46291 6.7577 -4.57708
612 1 -14.9269 4.1413 9.30761 -4.61383
613 1 -12.1174 1.28308 9.63792 -4.59302
614 1 -12.2048 4.06622 6.61839 -4.59211
615 1 -11.0009 0.0657597 5.25192 -4.63788
616 1 -11.0103 2.61513 8.00996 -4.62032
617 1 -8.38103 -0.170274 8.10839 -4.60056
618 1 -8.31945 2.74893 5.27152 -4.57584
619 1 -9.62065 1.25188 6.68526 -4.61554
620 1 -9.42494 3.80971 9.30753 -4.57086
621 1 -6.81803 1.01929 9.41284 -4.5663
622 1 -6.79808 3.87392 6.66534 -4.60538
623 1 -5.56201 -0.0414501 5.18732 -4.56242
624 1 -5.52307 2.48165 8.02256 -4.58681
625 1 -2.65029 0.122425 7.90822 -4.61509
626 1 -2.58678 2.53932 5.33406 -4.61012
627 1 -4.19292 1.24865 6.56134 -4.61509
628 1 -3.896 3.84602 9.08992 -4.57797
629 1 -1.27239 1.53634 9.25339 -4.5443
630 1 -1.14577 4.04996 6.43299 -4.59396
631 1 0.0610414 -0.0231278 5.15995 -4.61149
632 1 0.0685972 2.66349 7.80447 -4.60867
633 1 2.53958 0.0611905 7.94213 -4.53614
634 1 2.57106 2.87725 5.08524 -4.60638
635 1 1.45136 1.35233 6.42633 -4.53027
636 1 1.57118 3.93657 9.11777 -4.60335
637 1 4.17075 1.18168 9.16157 -4.60128
638 1 4.18065 4.1427 6.24722 -4.58658
639 1 5.26799 0.103545 5.26123 -4.59834
640 1 5.22036 2.85462 7.87246 -4.58802
641 1 8.22213 0.119262 7.87901 -4.60943
642 1 8.05899 2.76012 5.36535 -4.6295
643 1 6.62076 1.38362 6.73316 -4.61428
644 1 6.68966 4.17212 9.14768 -4.6153
645 1 9.57738 1.33201 9.34297 -4.58378
646 1 9.32624 4.3641 6.54645 -4.50306
647 1 10.7 0.198443 5.17518 -4.63842
648 1 10.5725 2.80524 7.87293 -4.60309
649 1 13.321 0.158141 8.07875 -4.55379
650 1 13.1483 2.99442 5.2081 -4.61083
651 1 12.0609 1.43857 6.66752 -4.56776
652 1 11.997 4.15149 9.19035 -4.58342
653 1 14.5936 1.5161 9.36749 -4.59974
654 1 14.5043 4.42653 6.53754 -4.58315
655 1 15.9174 0.364027 5.292 -4.59365
656 1 15.8025 2.92056 7.85344 -4.39099
657 1 18.7307 -0.0957441 7.39995 -4.55436
658 1 18.2686 2.64673 4.88981 -4.60846
659 1 17.3306 1.57095 6.73568 -4.60817
660 1 17.2858 4.178 9.2175 -4.89561
661 1 20.2648 1.41429 8.38957 -4.42921
662 1 19.8396 4.01764 5.8227 -4.52299
663 1 21.0349 1.92422 6.17193 -4.10907
664 1 -19.4309 5.86965 8.26091 -4.24678
665 1 -18.5788 8.35545 5.06424 -3.51487
666 1 -19.405 6.37305 5.93785 -4.35865
667 1 -17.5309 6.94515 9.42392 -5.10712
668 1 -17.3318 9.95505 6.53908 -4.52942
669 1 -16.3542 5.39519 5.04361 -4.39492
670 1 -16.1263 8.28976 7.84553 -4.37314
671 1 -13.7083 5.43632 7.85929 -4.55527
672 1 -13.6511 8.10149 5.21271 -4.54878
673 1 -15.0844 6.87026 6.48146 -4.54608
674 1 -14.634 9.33623 9.37996 -4.65963
675 1 -12.2427 6.60003 9.16702 -4.53457
676 1 -12.0794 9.2101 6.49516 -4.52099
677 1 -10.8052 5.54894 5.37192 -4.57407
678 1 -10.68 8.03931 8.11197 -4.579
679 1 -8.1157 5.23141 7.90771 -4.60924
680 1 -7.98121 8.16733 5.20685 -4.59262
681 1 -9.30313 6.88815 6.66905 -4.59636
682 1 -9.38373 9.09387 9.78578 -4.56205
683 1 -6.68854 6.43177 9.32252 -4.62696
684 1 -6.58563 9.3934 6.73324 -4.59791
685 1 -5.48752 5.28033 5.28088 -4.60034
686 1 -5.34431 7.83112 7.9987 -4.62004
687 1 -2.46653 5.39144 7.87118 -4.59301
688 1 -2.60931 7.86243 5.3512 -4.53319
689 1 -4.06202 6.53562 6.60407 -4.55886
690 1 -4.09402 9.26083 9.42612 -4.61326
691 1 -1.04892 6.70291 9.1929 -4.58968
692 1 -1.31502 9.33044 6.46179 -4.54124
693 1 0.173913 5.39856 4.96659 -4.60933
694 1 0.242794 8.08398 7.83145 -4.58611
695 1 2.79209 5.37594 7.77085 -4.6304
696 1 2.96845 8.35149 5.32077 -4.59386
697 1 1.52721 6.73132 6.25738 -4.56495
698 1 1.38343 9.44323 9.27084 -4.54437
699 1 4.02081 6.88702 9.12335 -4.57391
700 1 4.27095 9.96229 6.49587 -4.55217
701 1 5.46849 5.59301 4.91232 -4.59217
702 1 5.31979 8.3796 7.85781 -4.58655
703 1 7.90741 5.60238 7.76643 -4.55328
704 1 8.06263 8.26313 5.07909 -4.62018
705 1 6.55954 7.01474 6.36199 -4.57374
706 1 6.75542 9.55855 9.22412 -4.55193
707 1 9.21995 6.70903 9.4458 -4.59507
708 1 9.43986 9.59599 6.46428 -4.5804
709 1 10.6096 5.60241 5.11381 -4.6016
710 1 10.5085 8.15767 8.06284 -4.60356
711 1 13.125 5.62492 7.83884 -4.56091
712 1 13.4525 8.47834 5.49435 -4.42552
713 1 11.838 7.07531 6.41354 -4.56849
714 1 11.9804 9.382 9.43217 -4.60814
715 1 14.4908 6.74218 9.41177 -4.63221
716 1 14.8365 9.5794 7.02706 -4.67321
717 1 15.7419 5.68086 4.94163 -4.23489
718 1 16.032 8.16209 8.33576 -4.39388
719 1 18.2168 4.95792 7.18342 -4.07438
720 1 19.1645 7.66055 4.98783 -4.0188
721 1 17.0309 7.05956 6.33348 -5.34504
722 1 17.6951 9.38246 9.55834 -4.36294
723 1 19.2485 7.14825 7.32743 -4.07777
724 1 -16.8425 11.7243 8.1752 -4.17329
725 1 -15.8738 11.0233 5.05911 -4.48921
726 1 -15.9426 13.7886 7.1742 -4.23357
727 1 -12.9178 10.5342 8.121 -4.43167
728 1 -13.1342 12.9603 5.72787 -3.94605
729 1 -14.6773 11.7338 7.00821 -4.99268
730 1 -14.183 14.9515 8.20629 -4.04399
731 1 -11.4726 11.9654 9.35272 -4.52948
732 1 -12.049 14.807 6.81538 -5.37862
733 1 -10.7208 10.5744 5.16186 -4.616
734 1 -10.3435 13.3823 7.90746 -4.34595
735 1 -8.03634 10.4095 8.32577 -4.54141
736 1 -8.02854 13.0914 5.07754 -4.5632
737 1 -9.29607 11.7917 6.64811 -4.51993
738 1 -9.2337 14.9629 9.16658 -4.597
739 1 -6.71504 12.04 9.44517 -4.63386
740 1 -6.80848 14.4945 6.40926 -4.56396
741 1 -5.19328 10.5582 5.22555 -4.55104
742 1 -5.47093 13.3312 7.9532 -4.59112
743 1 -2.55992 10.5342 8.23079 -4.57523
744 1 -2.76111 13.2654 5.40623 -4.62666
745 1 -4.08033 11.8309 6.84905 -4.59762
746 1 -4.13267 14.7683 9.35253 -4.60203
747 1 -1.35725 12.0173 9.63081 -4.60943
748 1 -1.28473 14.5523 6.74095 -4.56071