ITEM: TIMESTEP
190000
ITEM: NUMBER OF ATOMS
4050
ITEM: BOX BOUNDS ss ss pp
-2.0585726936055853e+01 2.1040342485509036e+01
-2.0603470128625670e+01 2.0723432519573556e+01
-2.5797250000000003e+00 5.6889724999999999e+01
ITEM: ATOMS id type x y z c_peratom
1 1 -11.729 -15.8254 -0.412964 -4.07847
2 1 -7.17229 -18.1706 -2.18749 -4.51713
3 1 -8.87073 -17.2967 1.43915 -4.54415
4 1 -7.18422 -18.9302 1.08529 -3.68616
5 1 -6.04748 -16.399 -0.964008 -4.6337
6 1 -5.06695 -18.2005 0.215332 -4.56558
7 1 -2.86127 -18.0439 -2.53572 -4.56479
8 1 -4.86655 -19.1787 -1.97666 -4.30234
9 1 -3.76986 -16.9234 1.95656 -4.42099
10 1 -0.782449 -19.098 2.04483 -4.33249
11 1 -1.59508 -16.3568 -1.25782 -4.4472
12 1 0.274519 -19.6539 -0.933651 -4.60048
13 1 -0.342694 -17.6317 0.233745 -4.5605
14 1 3.43534 -17.8776 56.314 -4.57302
15 1 2.50914 -19.1113 -1.44606 -3.8232
16 1 1.35768 -16.2644 1.47553 -4.53841
17 1 3.14582 -19.4543 0.826291 -4.40885
18 1 4.07494 -16.4867 -1.37287 -4.66116
19 1 5.13044 -18.0695 0.0156417 -4.35252
20 1 6.85448 -18.2043 -1.72917 -4.07193
21 1 9.60275 -17.5511 1.06589 -4.30431
22 1 6.26369 -16.6529 1.5734 -4.46076
23 1 8.9601 -17.1002 -1.15031 -4.19511
24 1 11.4099 -16.1497 1.50957 -3.79407
25 1 -14.6311 -13.0412 -0.281171 -4.17196
26 1 -14.969 -14.7828 1.19694 -4.10723
27 1 -13.3107 -16.4281 1.33364 -4.13194
28 1 -12.3254 -13.346 56.5947 -4.59155
29 1 -13.5555 -14.7787 -1.35477 -4.18964
30 1 -13.979 -11.8785 1.75866 -4.61644
31 1 -11.2974 -14.4044 1.39199 -5.08849
32 1 -11.5488 -11.7413 -1.22347 -4.57104
33 1 -9.90517 -15.7762 -2.53173 -4.22496
34 1 -9.92688 -12.832 0.146062 -4.35484
35 1 -7.72955 -15.5196 0.31696 -4.5751
36 1 -7.50265 -12.5023 56.9879 -4.48312
37 1 -8.71559 -14.0568 -1.42313 -4.52844
38 1 -9.02885 -11.4314 1.73448 -4.5017
39 1 -6.3301 -14.1768 1.75242 -4.57248
40 1 -6.10523 -11.4607 -1.01974 -4.52978
41 1 -4.81802 -15.0014 56.8302 -4.49201
42 1 -4.92606 -12.7674 0.513621 -4.54838
43 1 -2.67017 -15.3804 0.557875 -4.50044
44 1 -2.44645 -12.6497 56.8028 -4.4948
45 1 -3.58377 -13.8275 -0.970403 -4.48207
46 1 -3.82926 -11.3206 2.01792 -4.59532
47 1 -1.30043 -14.0095 1.89729 -4.65239
48 1 -1.34203 -11.3864 -1.06287 -4.54265
49 1 0.048115 -15.658 56.738 -4.5111
50 1 -0.0450122 -12.8374 0.251623 -4.54746
51 1 2.68694 -15.0967 0.00802518 -4.44212
52 1 2.6405 -12.8677 56.6647 -4.59192
53 1 1.20983 -14.0678 -1.37002 -4.55922
54 1 1.16797 -11.4851 1.77108 -4.56907
55 1 3.76951 -14.0402 1.82062 -4.53851
56 1 3.83567 -11.6257 -1.20524 -4.5343
57 1 5.40719 -15.2768 56.7169 -4.42956
58 1 5.11372 -12.8496 0.420101 -4.58941
59 1 8.10805 -15.5458 0.418683 -4.91279
60 1 7.49738 -12.7324 -2.30849 -4.52995
61 1 6.44753 -14.3488 -0.926972 -4.34644
62 1 6.42233 -11.559 1.92406 -4.57821
63 1 9.01793 -14.2313 2.29046 -4.47172
64 1 9.13785 -11.5706 -0.897302 -4.48364
65 1 10.4434 -15.2769 -2.10667 -4.42251
66 1 10.0599 -12.6152 0.953879 -4.45939
67 1 13.1243 -15.3185 0.0793694 -4.48535
68 1 12.5877 -12.4455 -1.90532 -4.31637
69 1 11.3769 -13.8543 -0.443033 -4.7038
70 1 11.6819 -11.5176 2.21589 -4.63602
71 1 14.7229 -13.4894 0.963651 -3.81843
72 1 14.3464 -11.434 -0.439535 -5.43067
73 1 16.3415 -12.849 -0.664176 -4.07391
74 1 16.5936 -10.7087 0.304373 -3.94099
75 1 -17.8244 -7.78314 56.5115 -4.22151
76 1 -18.8305 -5.76881 3.03772 -3.50176
77 1 -16.9254 -8.53103 2.30593 -3.65219
78 1 -17.261 -6.52729 -0.970216 -4.41371
79 1 -15.2202 -10.9514 -2.22062 -3.96276
80 1 -15.7835 -7.72979 0.400488 -4.58986
81 1 -12.7053 -10.353 0.398443 -4.47561
82 1 -12.9575 -7.82263 -2.2215 -4.57676
83 1 -14.3254 -9.22991 -0.88012 -4.63974
84 1 -14.2416 -6.43941 1.70646 -4.53105
85 1 -11.5705 -8.98342 2.01831 -4.56526
86 1 -11.6615 -6.50059 -0.812495 -4.59373
87 1 -10.2525 -10.1721 -2.48192 -4.60034
88 1 -10.299 -7.60022 0.685059 -4.6
89 1 -7.54031 -10.2126 0.354584 -4.66548
90 1 -7.65522 -7.70461 -2.53716 -4.60156
91 1 -8.94607 -8.77777 -0.957047 -4.55407
92 1 -8.99126 -6.12721 1.91479 -4.54854
93 1 -6.32014 -8.79463 1.81012 -4.55187
94 1 -6.24035 -6.28524 -1.25178 -4.58947
95 1 -4.91787 -10.0506 56.8595 -4.52657
96 1 -4.93346 -7.56945 0.381856 -4.54559
97 1 -2.38259 -10.0577 0.611848 -4.52864
98 1 -2.37081 -7.58531 56.8736 -4.56449
99 1 -3.62155 -8.82756 -1.08978 -4.55884
100 1 -3.64626 -6.23266 1.84645 -4.59641
101 1 -1.18308 -8.48472 1.91527 -4.53614
102 1 -1.1357 -6.34882 -0.995868 -4.58326
103 1 0.156359 -10.293 -2.58334 -4.55319
104 1 0.207048 -7.58247 0.344624 -4.48789
105 1 2.63989 -10.287 0.37977 -4.60802
106 1 2.68926 -7.70914 56.7893 -4.5509
107 1 1.44708 -8.8761 -1.09781 -4.55852
108 1 1.40821 -6.23674 1.88667 -4.58578
109 1 3.8191 -8.85545 1.86143 -4.54047
110 1 3.73283 -6.2848 -1.22229 -4.57644
111 1 5.25241 -10.1772 -2.57995 -4.57901
112 1 5.08719 -7.58585 0.263506 -4.58566
113 1 7.75087 -10.1942 0.548676 -4.61013
114 1 7.67807 -7.50259 56.8835 -4.60062
115 1 6.4404 -8.93858 -1.05528 -4.56151
116 1 6.46968 -6.18335 1.76262 -4.58244
117 1 9.0146 -8.83877 2.02869 -4.57591
118 1 8.99506 -6.27947 -1.08619 -4.55371
119 1 10.3263 -10.1643 -2.27853 -4.58728
120 1 10.1503 -7.58433 0.41557 -4.53661
121 1 12.6195 -10.1029 0.605195 -4.37946
122 1 13.2122 -7.59459 -2.62554 -4.52914
123 1 11.6753 -8.73507 -1.07186 -4.52275
124 1 11.5655 -6.33158 1.76401 -4.52312
125 1 14.129 -8.73804 1.76945 -4.71693
126 1 14.3685 -6.21957 -1.05455 -4.64832
127 1 15.1409 -10.4505 -2.52877 -4.29918
128 1 15.6183 -7.60386 0.303802 -4.61195
129 1 17.7087 -7.3777 56.6958 -3.62367
130 1 16.6698 -9.03183 -1.24138 -4.56354
131 1 16.9338 -5.86328 1.2324 -4.22497
132 1 18.8062 -5.27176 -2.02971 -3.80642
133 1 -18.2929 -5.16068 0.749665 -4.41357
134 1 -17.9058 -2.50736 -1.86032 -4.96617
135 1 -19.3991 -3.07423 -0.137031 -4.36747
136 1 -18.6484 -1.68279 1.65716 -3.79358
137 1 -16.4752 -4.04389 1.93004 -4.53582
138 1 -16.7185 -0.778885 -0.763297 -4.47177
139 1 -15.7473 -5.23378 -2.1692 -4.61795
140 1 -15.5192 -2.30232 0.711344 -4.47647
141 1 -12.956 -4.96976 0.502181 -4.59524
142 1 -13.1619 -2.47687 -2.37273 -4.57154
143 1 -14.5045 -3.71861 -0.88656 -4.58282
144 1 -14.1133 -1.04766 2.19592 -4.53166
145 1 -11.5941 -3.77757 1.96477 -4.5428
146 1 -11.7477 -1.15968 -1.06458 -4.57325
147 1 -10.5604 -5.21312 -2.45791 -4.62335
148 1 -10.3392 -2.40024 0.425883 -4.54957
149 1 -7.82536 -5.1415 0.0892986 -4.5316
150 1 -7.7875 -2.64811 -2.57633 -4.57781
151 1 -9.21839 -3.73398 -1.17913 -4.60824
152 1 -8.95713 -1.30073 1.94355 -4.57503
153 1 -6.50927 -3.79339 1.69053 -4.53345
154 1 -6.57883 -1.22549 -1.19107 -4.59927
155 1 -4.98691 -4.91591 56.7401 -4.59678
156 1 -5.09693 -2.43411 0.304063 -4.56639
157 1 -2.43105 -4.84152 0.377953 -4.56985
158 1 -2.50112 -2.45922 56.7351 -4.56893
159 1 -3.74656 -3.61969 -1.12096 -4.54977
160 1 -3.78889 -1.09666 1.86263 -4.58352
161 1 -1.13041 -3.60637 1.88928 -4.58194
162 1 -1.33999 -1.1238 -1.08646 -4.58725
163 1 0.150668 -5.09827 -2.46811 -4.53659
164 1 0.109203 -2.30523 0.349789 -4.55261
165 1 2.58385 -4.89401 0.317004 -4.55784
166 1 2.64106 -2.21849 -2.57208 -4.58328
167 1 1.37483 -3.66716 -1.20007 -4.56505
168 1 1.35491 -1.13318 2.03872 -4.53465
169 1 3.86444 -3.48758 1.66033 -4.53407
170 1 4.02092 -0.995654 -1.07467 -4.59218
171 1 5.10376 -4.92718 56.9324 -4.57516
172 1 5.37478 -2.22759 0.434496 -4.57162
173 1 7.85025 -4.83965 0.418959 -4.58335
174 1 8.03232 -2.35981 56.8727 -4.57073
175 1 6.54158 -3.54938 -1.20874 -4.57
176 1 6.63546 -1.03405 1.94524 -4.54819
177 1 9.13638 -3.7319 2.08979 -4.53615
178 1 9.23323 -0.990004 -1.09981 -4.51007
179 1 10.4374 -5.21162 56.9037 -4.54141
180 1 10.2971 -2.5209 0.483861 -4.51182
181 1 12.9521 -4.9046 0.465531 -4.56779
182 1 12.7141 -2.45495 -2.52691 -4.52509
183 1 11.6113 -3.7893 -1.08324 -4.53816
184 1 11.3954 -1.13117 2.00261 -4.57572
185 1 14.1629 -3.63797 2.12425 -4.43499
186 1 13.8798 -1.16938 -0.874308 -4.53411
187 1 15.7312 -4.79898 -2.36574 -4.4293
188 1 15.4159 -2.2325 0.666719 -4.47651
189 1 18.4426 -4.33989 0.0961447 -4.56863
190 1 18.0668 -2.14496 56.9987 -4.69149
191 1 16.6756 -3.29487 -0.902089 -4.56185
192 1 16.4243 -1.09594 2.43315 -4.47485
193 1 19.1167 -2.12649 0.929236 -4.10873
194 1 19.1203 -0.655469 -0.979037 -3.69463
195 1 -20.0395 -1.1531 -1.43656 -4.27767
196 1 -18.8825 0.669375 1.89458 -4.48386
197 1 -18.3251 2.65707 -1.87277 -4.31881
198 1 -18.5721 0.714814 -0.533908 -4.34762
199 1 -19.059 5.00731 3.15806 -3.74685
200 1 -16.8299 1.66657 2.62378 -4.59994
201 1 -17.0575 3.95205 -0.305708 -4.42441
202 1 -15.4834 0.162858 -2.47321 -4.58107
203 1 -15.506 2.71506 0.866011 -4.5097
204 1 -12.7963 0.258564 0.546993 -4.55698
205 1 -13.0713 2.69382 -2.39112 -4.5849
206 1 -14.3465 1.43931 -0.896732 -4.49074
207 1 -14.1485 4.11508 2.19379 -4.58838
208 1 -11.4257 1.47869 2.02771 -4.5383
209 1 -11.8661 4.0875 -0.935945 -4.53322
210 1 -10.4839 0.188031 -2.5316 -4.62587
211 1 -10.497 2.84081 0.352058 -4.4915
212 1 -7.86457 0.102355 0.266818 -4.57329
213 1 -7.77885 2.63567 56.8978 -4.59089
214 1 -9.18078 1.52564 -1.08508 -4.57414
215 1 -9.24313 3.92895 1.93207 -4.52463
216 1 -6.55405 1.48345 1.70241 -4.56699
217 1 -6.42079 4.12679 -1.20359 -4.53379
218 1 -5.32974 0.120177 56.759 -4.57372
219 1 -5.22936 2.83235 0.3032 -4.59212
220 1 -2.62022 0.303867 0.337558 -4.58664
221 1 -2.69684 2.75282 56.8806 -4.52743
222 1 -3.99563 1.46299 -1.19333 -4.57013
223 1 -3.80498 3.97499 1.80831 -4.57376
224 1 -1.18216 1.49038 1.77792 -4.57813
225 1 -1.25225 3.95626 -1.2045 -4.58144
226 1 -0.0972637 0.33422 56.8982 -4.56451
227 1 0.239231 2.82868 0.358236 -4.59479
228 1 2.63177 0.13146 0.454215 -4.58848
229 1 2.70209 2.68341 -2.42893 -4.54237
230 1 1.35453 1.39852 -1.03352 -4.57677
231 1 1.38147 4.26456 1.75743 -4.5728
232 1 4.0268 1.55986 1.8873 -4.57882
233 1 4.06977 3.92654 -0.962924 -4.5736
234 1 5.28941 0.289968 56.9632 -4.5806
235 1 5.50527 2.82074 0.530458 -4.55692
236 1 7.99332 0.350869 0.473804 -4.57085
237 1 8.03365 2.80513 -2.55482 -4.55656
238 1 6.68409 1.56091 -1.05343 -4.57197
239 1 6.71143 4.33486 1.94998 -4.55984
240 1 9.1738 1.75438 1.9603 -4.53131
241 1 9.10458 4.24322 -1.00404 -4.52164
242 1 10.4137 0.25815 56.843 -4.52506
243 1 10.5415 3.05172 0.401336 -4.57955
244 1 12.7092 0.207251 0.602038 -4.56824
245 1 12.9256 2.86716 -2.57919 -4.58244
246 1 11.596 1.53079 -1.02509 -4.51029
247 1 11.9782 4.31946 1.86246 -4.50341
248 1 14.0755 1.51975 2.16926 -4.49899
249 1 14.2912 4.29263 -1.19598 -4.47241
250 1 15.2317 0.314149 -2.30851 -4.50255
251 1 15.1304 3.00761 0.633627 -4.35221
252 1 17.7644 0.0515756 0.82863 -4.82444
253 1 17.2558 2.9912 -1.87973 -4.4542
254 1 16.3039 1.36215 -0.523431 -4.34952
255 1 16.787 4.21903 1.764 -4.82681
256 1 19.234 0.947017 2.72785 -4.24075
257 1 19.2947 4.05699 -2.12289 -4.33511
258 1 19.027 1.74504 56.7483 -3.85157
259 1 -18.3232 5.54111 0.97886 -3.98071
260 1 -17.8993 8.17427 55.9952 -4.61788
261 1 -18.2982 6.5212 -1.82562 -3.88749
262 1 -16.9741 7.03294 2.18095 -4.68855
263 1 -17.1091 9.27119 -1.54256 -3.66491
264 1 -16.1831 5.27177 -2.17117 -5.42043
265 1 -16.0574 8.33908 0.468676 -4.45412
266 1 -13.1678 5.35964 0.490704 -4.5136
267 1 -13.1633 7.92345 -2.38692 -4.55844
268 1 -14.6852 6.7799 -0.853338 -4.29508
269 1 -14.3742 9.20778 1.954 -4.50516
270 1 -11.683 6.46686 1.83919 -4.60087
271 1 -11.7424 9.16475 -0.935949 -4.55759
272 1 -10.5383 5.26496 56.997 -4.59143
273 1 -10.327 7.77465 0.450911 -4.57569
274 1 -7.8122 5.03392 0.398596 -4.5456
275 1 -7.89875 7.76539 56.912 -4.54372
276 1 -9.09893 6.40651 -1.10736 -4.58449
277 1 -8.8748 8.87838 1.77825 -4.53905
278 1 -6.44446 6.36145 1.834 -4.59821
279 1 -6.62397 9.18506 -1.1072 -4.61817
280 1 -5.2164 5.43565 56.7592 -4.56455
281 1 -5.26484 7.86853 0.346024 -4.59456
282 1 -2.41777 5.29724 0.300955 -4.58268
283 1 -2.468 7.82725 56.8254 -4.57279
284 1 -3.87514 6.53886 -1.13672 -4.58376
285 1 -3.93907 9.30511 1.66236 -4.57023
286 1 -1.28617 6.72207 1.84299 -4.55502
287 1 -1.18552 9.21979 -1.20798 -4.58889
288 1 0.0562521 5.25373 56.692 -4.58842
289 1 0.00614823 7.92991 0.299854 -4.56019
290 1 2.70935 5.52412 0.213167 -4.53378
291 1 2.57277 7.80973 56.6206 -4.55328
292 1 1.26544 6.60767 -1.24682 -4.54036
293 1 1.28671 9.39221 1.70894 -4.57093
294 1 4.01721 6.54738 1.86463 -4.56061
295 1 3.7884 9.05051 -1.20255 -4.57914
296 1 5.20554 5.12394 56.8806 -4.58069
297 1 5.23631 7.72687 0.265962 -4.49907
298 1 7.78046 5.71117 0.285308 -4.53142
299 1 7.99635 7.96077 56.6975 -4.55438
300 1 6.54706 6.61056 -1.45095 -4.51624
301 1 6.39549 9.29754 1.84048 -4.51668
302 1 9.23752 6.96819 1.75393 -4.54437
303 1 9.16627 9.3651 -1.27057 -4.49006
304 1 10.4356 5.3978 56.6813 -4.52042
305 1 10.4972 8.27342 0.29122 -4.3499
306 1 13.0282 5.75595 0.184354 -4.49553
307 1 12.5882 8.12533 56.2378 -4.30556
308 1 11.5308 6.9148 -1.40659 -4.46029
309 1 12.0408 9.58593 1.62804 -4.90053
310 1 14.3649 6.93021 1.8128 -4.51865
311 1 14.1117 8.81082 -1.59631 -4.47077
312 1 15.2749 5.55071 56.4562 -4.33052
313 1 16.1478 8.36605 0.876955 -4.58832
314 1 18.5149 5.01612 0.0988107 -4.11978
315 1 17.2585 6.75501 56.6509 -4.64373
316 1 17.356 6.94898 -0.509378 -3.6708
317 1 17.2037 8.94732 2.95437 -3.75646
318 1 18.9532 5.31673 2.35925 -4.02022
319 1 -15.694 13.0502 3.15125 -4.22689
320 1 -15.4872 10.8211 -2.47431 -4.6523
321 1 -15.2752 13.5727 0.869794 -4.12738
322 1 -13.0484 10.4749 0.486226 -4.62371
323 1 -13.1764 13.1908 -2.54155 -4.9135
324 1 -14.463 12.0004 -0.691034 -4.29606
325 1 -13.5481 13.9024 2.59457 -4.81421
326 1 -11.4745 11.5923 1.88742 -4.47652
327 1 -12.2007 14.5618 -0.72139 -4.23238
328 1 -10.5643 10.3841 56.7824 -4.57106
329 1 -10.6495 12.9222 0.0976282 -4.46089
330 1 -7.93107 10.4979 0.269192 -4.52716
331 1 -7.65866 12.8462 56.5592 -4.57993
332 1 -9.07565 11.726 -1.36121 -4.52608
333 1 -9.40789 14.1307 1.73426 -4.46025
334 1 -6.42885 11.602 1.61166 -4.58317
335 1 -6.65425 14.3015 -1.32261 -4.525
336 1 -5.05107 10.2331 56.8767 -4.5535
337 1 -5.21463 13.0751 0.164577 -4.5993
338 1 -2.44653 10.5824 0.224529 -4.57857
339 1 -2.57255 12.9922 56.6297 -4.62501
340 1 -3.83392 11.7564 -1.24532 -4.61388
341 1 -3.84159 14.3137 1.67085 -4.47203
342 1 -1.24232 11.7378 1.86466 -4.54908
343 1 -1.28567 14.1896 -1.26228 -4.55637
344 1 0.15593 10.5748 56.7785 -4.51853
345 1 -0.0319717 12.9896 0.345181 -4.56731
346 1 2.85671 10.6049 0.369021 -4.5592
347 1 2.77141 12.9985 56.884 -4.49598
348 1 1.42364 11.8359 -1.10446 -4.55644
349 1 1.19188 14.4284 1.74311 -4.56564
350 1 4.12333 11.8924 1.78006 -4.55224
351 1 4.03081 14.2193 -1.19215 -4.47663
352 1 5.1847 10.4665 -2.54431 -4.55598
353 1 5.48675 13.3648 0.454766 -4.48076
354 1 7.83095 10.4884 0.32553 -4.58311
355 1 7.64623 13.2064 56.7764 -4.32529
356 1 6.47466 11.8327 -1.01516 -4.55099
357 1 6.58063 14.6037 2.18782 -4.56564
358 1 8.89877 12.0858 1.78487 -4.35431
359 1 9.15399 14.7022 -1.25671 -4.77469
360 1 10.1107 10.7196 56.4566 -4.36248
361 1 10.3911 13.2002 0.245521 -4.62659
362 1 12.6935 10.3667 -0.618648 -4.42357
363 1 12.893 12.7757 55.9635 -4.22786
364 1 11.5474 12.1837 -1.60032 -4.75364
365 1 11.5762 14.1593 2.0787 -4.23916
366 1 14.0017 10.9811 2.23421 -4.26269
367 1 13.5947 13.4024 -1.22544 -4.22075
368 1 15.3169 10.1029 56.1771 -4.20206
369 1 14.5447 11.7665 0.0076584 -4.61766
370 1 15.9951 10.0424 -0.916199 -4.31729
371 1 -13.8797 15.4541 0.72267 -4.16745
372 1 -12.747 16.244 2.83848 -4.09658
373 1 -9.83018 15.5839 56.4528 -4.35851
374 1 -8.40307 15.1327 -0.067604 -4.5091
375 1 -8.61528 17.5968 56.2529 -4.43415
376 1 -9.43808 16.9699 -1.09263 -4.44537
377 1 -6.79443 15.9767 1.43004 -4.72752
378 1 -7.47938 18.1938 -1.28364 -3.63865
379 1 -5.33393 15.7952 56.7261 -4.54966
380 1 -5.74481 17.5899 0.192981 -4.66671
381 1 -2.79647 15.5669 -0.103013 -4.57721
382 1 -2.13396 18.1814 56.8369 -4.3599
383 1 -3.92364 17.1593 -1.3643 -4.4546
384 1 -5.37198 19.1176 2.04506 -4.0255
385 1 -1.76318 16.8544 1.57507 -4.48145
386 1 -0.263925 18.7873 -1.38995 -4.3019
387 1 0.0297103 15.4644 56.7268 -4.42918
388 1 0.265298 17.752 0.674959 -4.36485
389 1 2.64075 15.5736 0.135049 -4.36358
390 1 2.90335 18.4421 -1.88286 -4.27542
391 1 1.26997 16.9634 -1.40159 -4.96743
392 1 1.23018 19.5227 1.96271 -4.52326
393 1 3.68989 16.8108 1.84443 -4.54908
394 1 2.80131 19.67 0.134506 -4.27264
395 1 5.2349 15.6525 56.8387 -4.37831
396 1 4.79845 18.4746 0.693338 -4.52161
397 1 7.91016 16.5563 -0.400853 -4.46448
398 1 9.31928 17.9766 -1.66333 -4.29243
399 1 5.92965 17.4182 -1.23476 -4.43985
400 1 5.78433 19.3945 2.74927 -3.57073
401 1 8.39679 16.1281 1.8875 -4.58815
402 1 10.0247 15.1824 56.1078 -4.18573
403 1 12.1207 14.8119 -0.0322992 -4.23897
404 1 10.926 16.285 -1.42303 -4.24314
405 1 1.44777 20.2404 -1.79794 -4.32543
406 1 -12.0613 -16.0467 3.29792 -4.35442
407 1 -7.66242 -18.1644 3.23041 -3.7324
408 1 -9.26118 -16.8956 7.73017 -3.56812
409 1 -6.25137 -19.2463 8.51125 -4.10202
410 1 -6.33135 -17.0018 4.78016 -4.57581
411 1 -5.2448 -18.0461 6.63709 -4.62068
412 1 -2.61318 -18.4856 3.49555 -4.45741
413 1 -3.29866 -19.1401 5.69918 -3.59744
414 1 -3.66843 -16.7685 7.84557 -4.49059
415 1 -1.63377 -19.2775 7.23881 -4.06395
416 1 -1.36907 -16.9418 4.60038 -4.62787
417 1 1.05801 -20.5289 1.33878 -4.11257
418 1 0.00455525 -18.4741 5.7258 -4.34227
419 1 2.56857 -17.9311 2.63851 -4.58577
420 1 0.915774 -19.3412 3.55649 -4.29571
421 1 1.04816 -16.7586 7.13402 -4.43423
422 1 4.21812 -19.236 8.32546 -4.41991
423 1 3.81102 -16.9755 4.52523 -4.46784
424 1 5.10825 -18.0972 6.15722 -4.42709
425 1 7.87688 -17.8268 2.84011 -4.38897
426 1 7.04118 -18.5951 4.99828 -3.36423
427 1 6.25027 -16.6346 7.49397 -4.47326
428 1 9.09201 -17.0651 4.74233 -4.25946
429 1 12.9043 -15.5867 8.85224 -4.1525
430 1 -17.7002 -10.0716 5.3554 -4.1232
431 1 -15.9862 -12.0971 4.93647 -3.93958
432 1 -13.0858 -14.1097 4.212 -4.46866
433 1 -12.0341 -12.6512 2.72561 -4.39923
434 1 -15.141 -13.3941 3.0643 -4.37957
435 1 -14.5676 -11.6657 7.02736 -4.4205
436 1 -12.294 -14.2114 6.74451 -4.25558
437 1 -11.3937 -11.424 4.7427 -4.4914
438 1 -9.83042 -15.5455 2.80383 -4.24103
439 1 -10.3911 -12.9375 6.06486 -4.59996
440 1 -8.03296 -15.7064 5.90986 -4.61305
441 1 -7.66561 -12.7219 3.11768 -4.61437
442 1 -8.99233 -14.0982 4.51168 -4.50024
443 1 -9.35236 -11.51 7.62563 -4.57959
444 1 -6.73074 -14.3318 7.34649 -4.56958
445 1 -6.5479 -11.5029 4.87405 -4.58046
446 1 -5.13228 -15.5219 3.29154 -4.61359
447 1 -5.23682 -13.0286 6.13534 -4.63312
448 1 -2.44948 -15.5555 6.19605 -4.51741
449 1 -2.66755 -12.7936 3.34416 -4.59965
450 1 -3.76674 -14.2686 4.74773 -4.58922
451 1 -4.00382 -11.6122 7.61764 -4.5481
452 1 -1.3981 -13.9937 7.62217 -4.59546
453 1 -1.21606 -11.4576 4.57326 -4.59893
454 1 0.00610845 -15.4914 3.18138 -4.53711
455 1 -0.0223346 -12.7704 6.2061 -4.51603
456 1 2.59971 -15.383 5.8625 -4.57923
457 1 2.59404 -12.5505 3.25722 -4.59601
458 1 1.12811 -13.922 4.5942 -4.59437
459 1 1.08044 -11.366 7.61001 -4.51791
460 1 3.63998 -14.0363 7.66047 -4.52143
461 1 3.90847 -11.3549 4.82586 -4.53911
462 1 5.09088 -15.4387 3.351 -4.53082
463 1 5.17784 -12.7659 6.30912 -4.62185
464 1 7.94823 -15.4 6.23853 -4.48029
465 1 7.66866 -12.7556 3.47774 -4.60615
466 1 6.46163 -14.2205 4.86144 -4.59194
467 1 6.49877 -11.581 7.79633 -4.59093
468 1 9.25313 -14.2662 7.95877 -4.49598
469 1 9.09701 -11.5807 4.95816 -4.60737
470 1 10.6209 -15.3502 3.61469 -4.49392
471 1 10.4402 -12.9271 6.31304 -4.55601
472 1 13.4691 -14.7588 6.60553 -4.23539
473 1 13.3238 -12.8656 3.19354 -4.35244
474 1 11.9452 -13.8454 4.896 -4.41735
475 1 11.7241 -11.4962 7.57669 -4.40586
476 1 13.2186 -13.258 8.57838 -4.96438
477 1 14.5853 -11.5145 4.54505 -4.57757
478 1 15.117 -13.1634 6.13363 -3.59666
479 1 15.4989 -12.9142 8.53407 -4.39492
480 1 -18.3165 -7.86444 4.05737 -4.56026
481 1 -19.2153 -5.91051 8.83996 -4.21227
482 1 -16.9246 -9.39513 7.42131 -4.66556
483 1 -16.8013 -6.46867 5.24869 -4.62754
484 1 -15.948 -10.0329 3.8631 -4.62914
485 1 -15.4741 -7.71693 6.73909 -4.63475
486 1 -12.9094 -10.3261 6.19114 -4.6047
487 1 -12.8579 -7.5097 3.44448 -4.51084
488 1 -14.303 -8.7917 4.90273 -4.64021
489 1 -14.2604 -6.13524 8.02585 -4.55597
490 1 -11.8577 -8.92199 7.8624 -4.52147
491 1 -11.6222 -6.18457 5.00439 -4.5495
492 1 -10.0735 -10.1439 3.32704 -4.53161
493 1 -10.4118 -7.4849 6.42694 -4.54059
494 1 -7.82706 -10.2258 6.38296 -4.62659
495 1 -7.73666 -7.69859 3.23856 -4.5627
496 1 -8.94171 -8.75542 4.94755 -4.51087
497 1 -9.14091 -6.19572 7.85865 -4.56673
498 1 -6.42542 -8.96717 7.77278 -4.61086
499 1 -6.3198 -6.34639 4.54303 -4.55093
500 1 -5.26267 -10.08 3.49724 -4.59722
501 1 -5.17511 -7.58825 6.29978 -4.56453
502 1 -2.62621 -10.3936 6.21088 -4.56485
503 1 -2.4997 -7.43039 3.61329 -4.49649
504 1 -3.78908 -8.87731 4.87688 -4.63061
505 1 -3.86784 -6.32331 7.74079 -4.57875
506 1 -1.40498 -8.85837 7.53121 -4.49437
507 1 -1.20065 -6.04693 5.05861 -4.60142
508 1 0.107957 -10.0952 3.24368 -4.53717
509 1 0.157731 -7.39524 6.39827 -4.57126
510 1 2.57253 -10.1401 6.22109 -4.57954
511 1 2.73156 -7.52827 3.38628 -4.56695
512 1 1.34357 -8.7195 4.76883 -4.56783
513 1 1.25291 -6.24299 8.08244 -4.53236
514 1 3.91473 -8.97434 7.63847 -4.55429
515 1 3.97625 -6.18061 4.75137 -4.50327
516 1 5.11053 -10.1426 3.29657 -4.5992
517 1 5.23095 -7.58436 6.19639 -4.59501
518 1 7.76949 -10.2569 6.31989 -4.58096
519 1 7.7144 -7.40674 3.37083 -4.59898
520 1 6.54049 -8.9571 4.75338 -4.59124
521 1 6.35409 -6.33149 7.8029 -4.53819
522 1 9.07025 -9.10619 7.90146 -4.60793
523 1 8.95883 -6.28615 5.03022 -4.56431
524 1 10.3494 -10.1235 3.58488 -4.60734
525 1 10.3949 -7.7542 6.43143 -4.5621
526 1 13.0554 -10.1271 6.03087 -4.50142
527 1 12.9713 -7.30884 3.27714 -4.38148
528 1 11.7344 -8.66767 4.70413 -4.58552
529 1 11.8302 -6.43161 7.84049 -4.61398
530 1 14.4401 -9.1013 7.73941 -4.50912
531 1 14.6759 -6.56405 4.80832 -4.71352
532 1 15.6218 -10.1044 2.83843 -4.1156
533 1 15.7977 -7.5828 6.65975 -4.18742
534 1 17.7022 -6.88292 3.29797 -4.4022
535 1 16.1986 -8.34602 4.45295 -4.18622
536 1 17.169 -6.53713 8.31538 -4.25341
537 1 18.7327 -5.4185 4.8067 -3.60676
538 1 -18.2987 -5.02545 6.55369 -4.40744
539 1 -17.5688 -2.61453 3.43612 -4.452
540 1 -19.1834 -3.84153 4.6557 -4.43432
541 1 -19.5945 -1.6715 5.84095 -3.95941
542 1 -16.9865 -3.55117 7.77954 -4.61819
543 1 -17.4035 -0.804801 5.19571 -5.30761
544 1 -15.5556 -5.47162 3.46359 -4.45701
545 1 -15.7534 -2.40762 6.06442 -4.27034
546 1 -13.0592 -4.88858 6.37861 -4.53629
547 1 -12.9072 -2.56545 3.533 -4.61845
548 1 -14.4239 -3.80047 4.77519 -4.54827
549 1 -14.3752 -1.21476 7.68447 -4.52264
550 1 -11.8247 -3.74861 7.9059 -4.55053
551 1 -11.5813 -1.32103 4.97249 -4.56079
552 1 -10.355 -5.00543 3.40595 -4.52682
553 1 -10.3457 -2.5222 6.47552 -4.55236
554 1 -7.74844 -5.17435 6.19794 -4.55802
555 1 -7.58994 -2.61063 3.38029 -4.55487
556 1 -9.07462 -3.70274 4.9074 -4.61107
557 1 -9.01061 -1.27216 7.9739 -4.58386
558 1 -6.55123 -3.73131 7.70756 -4.53387
559 1 -6.38323 -1.05939 4.71501 -4.52551
560 1 -4.98613 -4.88943 3.18549 -4.56767
561 1 -5.24694 -2.50764 6.21646 -4.57965
562 1 -2.5082 -4.78199 6.46867 -4.56733
563 1 -2.43449 -2.35196 3.45453 -4.59691
564 1 -3.80675 -3.73077 4.8003 -4.54859
565 1 -4.03439 -1.33157 7.83503 -4.54692
566 1 -1.24967 -3.55265 7.90908 -4.45762
567 1 -1.06811 -1.13096 4.93521 -4.53169
568 1 0.112919 -4.86387 3.39202 -4.55277
569 1 0.0951175 -2.47992 6.29872 -4.50085
570 1 2.60061 -5.17296 6.40008 -4.54893
571 1 2.73155 -2.3791 3.41267 -4.55599
572 1 1.47233 -3.74786 4.89943 -4.57393
573 1 1.17522 -1.18263 7.89282 -4.52679
574 1 3.83031 -3.83002 7.87294 -4.56774
575 1 3.89918 -0.952213 4.95469 -4.54756
576 1 5.13252 -4.74792 3.07927 -4.51661
577 1 5.24456 -2.40101 6.36645 -4.49846
578 1 7.50219 -5.01459 6.3208 -4.54901
579 1 7.76817 -2.43587 3.45623 -4.60864
580 1 6.32301 -3.67911 4.78778 -4.51799
581 1 6.44119 -1.1654 7.83456 -4.56502
582 1 8.89251 -3.8934 7.7848 -4.58534
583 1 9.12027 -1.23031 4.87197 -4.55738
584 1 10.4662 -5.14407 3.54598 -4.56233
585 1 10.3697 -2.71498 6.41586 -4.54021
586 1 13.254 -5.36186 6.39968 -4.35419
587 1 12.7481 -2.38426 3.58284 -4.54176
588 1 11.7955 -3.96884 5.08085 -4.59511
589 1 11.5882 -1.42261 8.11206 -4.57475
590 1 14.2176 -3.95517 8.00347 -4.50391
591 1 14.1691 -1.26339 5.27499 -4.55236
592 1 15.8132 -5.07113 3.24852 -4.6621
593 1 15.5439 -2.79567 6.46232 -4.39165
594 1 17.8971 -4.81749 6.86224 -3.56694
595 1 18.2489 -2.37082 3.20897 -4.29901
596 1 16.9514 -3.73676 4.84795 -4.8651
597 1 16.7524 -1.32997 7.88665 -4.49536
598 1 18.8856 -2.22238 8.59606 -4.55392
599 1 19.2876 -0.625897 4.47151 -4.37128
600 1 -19.4587 0.077514 4.28133 -4.07114
601 1 -17.5756 0.660501 6.98338 -4.43496
602 1 -17.9321 3.11622 4.09729 -4.70869
603 1 -19.0902 1.95931 5.69884 -4.65427
604 1 -18.9357 3.69605 7.37705 -3.63087
605 1 -16.2883 2.02542 8.29654 -4.55667
606 1 -16.7736 4.58367 5.37894 -4.58238
607 1 -15.6279 -0.0285065 3.75793 -4.33781
608 1 -15.3856 3.00946 6.43841 -4.44866
609 1 -12.9133 0.00558274 6.32563 -4.63555
610 1 -12.9364 2.58846 3.50561 -4.57991
611 1 -14.2458 1.45719 5.07342 -4.58557
612 1 -14.1246 4.34692 7.95286 -4.58431
613 1 -11.5254 1.43794 7.6481 -4.59828
614 1 -11.6803 3.93281 5.02068 -4.61652
615 1 -10.2436 0.0356469 3.42289 -4.55629
616 1 -10.1759 2.77846 6.30021 -4.57329
617 1 -7.58564 -0.125412 6.40442 -4.5124
618 1 -7.70315 2.63122 3.34754 -4.55435
619 1 -8.94737 1.2715 4.89799 -4.58879
620 1 -8.94031 4.01311 7.79423 -4.54742
621 1 -6.30621 1.29479 7.71071 -4.57761
622 1 -6.46554 3.97832 4.7858 -4.59433
623 1 -5.12977 0.303367 3.16579 -4.56971
624 1 -5.0408 2.62578 6.174 -4.59441
625 1 -2.62644 -0.139651 6.27378 -4.48995
626 1 -2.4217 2.75562 3.3031 -4.59831
627 1 -3.78943 1.37403 4.68348 -4.54052
628 1 -3.74259 3.9013 7.71449 -4.58058
629 1 -1.2702 1.06748 7.91729 -4.54359
630 1 -1.21723 4.02249 4.8843 -4.53222
631 1 0.154561 0.278799 3.35149 -4.50533
632 1 -0.166386 2.61866 6.52728 -4.5348
633 1 2.49075 0.195726 6.34375 -4.53272
634 1 2.42946 2.62692 3.22357 -4.48839
635 1 1.18199 1.5691 4.96073 -4.5117
636 1 1.34922 4.06795 7.74049 -4.53211
637 1 3.75092 1.36815 7.83907 -4.5924
638 1 3.83632 4.0116 4.78239 -4.5524
639 1 5.20876 0.205412 3.39779 -4.60084
640 1 4.99981 2.68407 6.37664 -4.59849
641 1 7.83925 0.0681887 6.3516 -4.61073
642 1 7.85704 2.89298 3.50815 -4.56784
643 1 6.4718 1.45636 4.97381 -4.58611
644 1 6.44768 3.88245 7.81744 -4.5843
645 1 9.24382 1.35111 7.7932 -4.59177
646 1 9.10509 4.2668 4.90826 -4.54977
647 1 10.1858 0.305052 3.43302 -4.53444
648 1 10.3873 2.86753 6.38637 -4.5828
649 1 12.716 0.0430349 6.54757 -4.58701
650 1 12.8317 2.84918 3.63368 -4.5595
651 1 11.5147 1.34948 4.97596 -4.53069
652 1 11.7731 4.04306 8.03789 -4.51284
653 1 14.1592 1.26956 7.99724 -4.54444
654 1 14.0611 4.3481 4.8701 -4.49896
655 1 15.1525 0.217147 3.8947 -4.51692
656 1 14.9245 2.93359 6.51965 -4.5156
657 1 17.6848 -0.161644 6.16802 -4.69605
658 1 17.4233 2.33097 3.1629 -4.5389
659 1 16.4853 1.64491 5.26141 -4.53688
660 1 16.4554 3.98814 7.83684 -4.55722
661 1 19.1513 1.42719 7.0346 -4.37199
662 1 18.9897 3.74482 4.39787 -4.43125
663 1 20.2044 1.61441 4.8404 -4.18758
664 1 -19.029 6.15164 7.56642 -4.47428
665 1 -17.8807 8.0509 4.14789 -3.60928
666 1 -18.6692 6.07484 5.15449 -4.52577
667 1 -16.7601 6.80561 7.8517 -4.66902
668 1 -16.8659 9.90619 5.22545 -4.53025
669 1 -15.6631 5.49516 3.44056 -4.58964
670 1 -15.6145 8.09967 6.265 -4.48772
671 1 -12.9003 5.49312 6.33849 -4.54773
672 1 -12.8256 8.03882 3.25628 -4.52338
673 1 -14.1254 6.7888 4.7274 -4.56328
674 1 -14.1835 8.95508 8.03929 -4.59188
675 1 -11.3805 6.42208 7.86514 -4.57638
676 1 -11.5281 9.14721 5.03495 -4.4445
677 1 -10.4493 5.24722 3.41118 -4.56479
678 1 -10.1698 7.89351 6.46684 -4.58124
679 1 -7.74915 5.31359 6.2095 -4.59586
680 1 -7.63299 7.71122 3.33704 -4.54742
681 1 -9.14531 6.64319 4.7806 -4.58208
682 1 -8.80955 9.22331 7.84066 -4.59116
683 1 -6.44136 6.67235 7.65631 -4.51862
684 1 -6.40354 9.17006 4.64174 -4.51842
685 1 -5.02517 5.24388 3.40047 -4.59965
686 1 -5.18319 8.01815 6.1919 -4.54454
687 1 -2.54094 5.44009 6.26599 -4.6061
688 1 -2.58457 8.01105 3.27587 -4.55486
689 1 -3.84164 6.72489 4.7584 -4.57677
690 1 -3.85588 9.09259 7.90277 -4.57678
691 1 -1.1472 6.59367 7.75457 -4.54056
692 1 -1.36726 9.30872 4.83612 -4.54081
693 1 -0.0939615 5.3531 3.31151 -4.56354
694 1 -0.0215845 7.92681 6.09978 -4.56364
695 1 2.52716 5.39101 6.16341 -4.55908
696 1 2.70127 8.09465 3.10571 -4.59969
697 1 1.33865 6.68628 4.50442 -4.58776
698 1 1.3892 9.05654 7.73426 -4.55469
699 1 3.95593 6.5995 7.65846 -4.54803
700 1 4.00532 9.20087 4.81632 -4.57463
701 1 5.36249 5.51664 3.51794 -4.54159
702 1 5.29742 8.04383 6.43082 -4.55202
703 1 7.66111 5.30102 6.33602 -4.54278
704 1 7.87845 8.30117 3.31416 -4.54305
705 1 6.67084 6.92989 4.84641 -4.5642
706 1 6.5032 9.40521 7.84355 -4.57286
707 1 9.11128 6.68076 7.67615 -4.55263
708 1 9.27755 9.52633 4.80146 -4.40988
709 1 10.403 5.44818 3.26284 -4.52976
710 1 10.4426 8.33054 6.4671 -4.28898
711 1 12.7704 5.67219 6.45236 -4.4905
712 1 12.8319 7.92446 3.17228 -4.31875
713 1 11.4696 6.89759 4.84123 -4.50374
714 1 12.0758 9.48276 8.03519 -4.81735
715 1 14.1848 6.82106 8.07203 -4.38795
716 1 14.2431 8.67744 4.88189 -4.41453
717 1 15.4706 5.47454 3.27035 -4.35074
718 1 15.4328 8.6162 7.10571 -4.67433
719 1 17.5877 4.90801 5.91564 -4.4004
720 1 18.5709 7.23267 3.78181 -4.47698
721 1 16.6375 6.65963 4.90397 -4.39361
722 1 17.1995 9.73486 8.27443 -4.21622
723 1 18.7425 7.03971 6.17181 -4.20987
724 1 -16.0336 11.6876 6.59279 -4.13346
725 1 -15.4816 10.6855 3.51795 -4.49078
726 1 -15.165 13.4389 5.39064 -4.24959
727 1 -12.6956 10.1419 6.78765 -4.40403
728 1 -12.2119 12.5345 3.95188 -3.91649
729 1 -13.9942 11.2892 5.18479 -5.02062
730 1 -13.313 14.3796 6.65269 -4.08764
731 1 -11.3234 11.7757 7.774 -4.59764
732 1 -11.2974 14.5241 5.23327 -5.43583
733 1 -10.1726 10.164 3.30241 -4.53796
734 1 -9.78369 12.9084 6.2683 -4.34947
735 1 -7.52217 10.361 6.24767 -4.51712
736 1 -7.83411 12.9673 2.9563 -4.53726
737 1 -8.69987 11.626 4.64082 -4.53477
738 1 -8.51121 14.3299 7.51285 -4.54289
739 1 -6.26943 11.7688 7.59999 -4.54461
740 1 -6.47718 14.3213 4.42085 -4.65167
741 1 -5.09243 10.6533 3.28205 -4.51277
742 1 -5.26166 13.3235 6.14499 -4.52913
743 1 -2.63598 10.6524 6.41779 -4.54476
744 1 -2.63833 13.0616 3.26749 -4.52076