ITEM: TIMESTEP
234000
ITEM: NUMBER OF ATOMS
4050
ITEM: BOX BOUNDS ss ss pp
-2.0704177322193630e+01 2.0552399374455852e+01
-2.0527244613829932e+01 2.0647637549659400e+01
-3.1771350000000003e+00 5.7487135000000002e+01
ITEM: ATOMS id type x y z c_peratom
1 1 -12.0398 -15.1368 -0.978282 -3.82606
2 1 -7.7808 -17.6964 -2.25972 -4.52292
3 1 -9.06617 -17.0066 0.53381 -4.52244
4 1 -7.434 -18.652 -0.00892142 -4.36251
5 1 -6.14365 -16.1554 -1.44136 -4.6896
6 1 -5.29246 -17.8759 -0.11597 -4.62013
7 1 -2.67908 -18.0877 -3.15948 -4.62059
8 1 -4.71455 -18.7019 -2.26356 -3.84133
9 1 -3.82799 -16.7274 1.32163 -4.41724
10 1 -0.749496 -19.3415 1.78457 -4.32294
11 1 -1.55116 -16.5637 -1.80464 -4.50332
12 1 0.326595 -19.8401 -1.28945 -4.67515
13 1 -0.518891 -18.0156 -0.117407 -4.56482
14 1 3.01899 -17.3787 57.4071 -4.60237
15 1 2.42448 -18.8076 -1.59241 -3.82702
16 1 1.07052 -16.5356 0.858108 -4.57976
17 1 3.3697 -19.2637 0.45414 -4.43945
18 1 4.07898 -16.2298 -1.45836 -4.65451
19 1 5.26571 -17.6526 -0.12971 -4.38604
20 1 6.62871 -18.051 -2.09288 -4.2208
21 1 9.82271 -17.5385 0.588657 -3.94464
22 1 6.58455 -16.3307 1.40392 -4.5507
23 1 8.94571 -16.9843 -1.46634 -4.34644
24 1 11.3977 -15.9466 0.987297 -3.69628
25 1 -15.0203 -12.6577 -1.27665 -3.94033
26 1 -15.3699 -13.8024 0.707965 -4.39742
27 1 -14.0104 -15.6428 0.0734009 -4.42314
28 1 -12.6748 -13.1365 57.0795 -4.51937
29 1 -13.9825 -14.5101 -2.14919 -4.53442
30 1 -14.2678 -11.6685 0.697395 -4.24738
31 1 -11.3743 -14.091 1.04833 -4.87959
32 1 -11.6078 -11.7005 -2.03395 -4.54297
33 1 -10.1874 -15.5121 57.3976 -3.95624
34 1 -10.1866 -12.6604 -0.453588 -4.41796
35 1 -7.68419 -15.2042 0.0320173 -4.58237
36 1 -7.83967 -12.7426 -3.20764 -4.5835
37 1 -8.87236 -14.2595 -1.78914 -4.62849
38 1 -8.7501 -11.458 0.981668 -4.52821
39 1 -6.26165 -13.8529 1.36297 -4.52668
40 1 -6.39779 -11.368 -1.94291 -4.55094
41 1 -4.97797 -15.2257 57.4511 -4.48948
42 1 -5.19076 -12.3675 -0.178898 -4.45408
43 1 -2.67936 -15.1969 -0.292906 -4.49103
44 1 -2.44085 -12.6816 57.2966 -4.56823
45 1 -3.95474 -13.6872 -1.80604 -4.53433
46 1 -3.87196 -11.2453 1.32093 -4.49616
47 1 -1.35382 -13.97 1.15085 -4.55164
48 1 -1.26683 -11.2474 -1.97775 -4.57547
49 1 0.170104 -15.2846 -3.07335 -4.52782
50 1 -0.133364 -12.6189 -0.304385 -4.54714
51 1 2.47992 -14.9927 -0.285066 -4.56506
52 1 2.84918 -12.6976 57.3023 -4.47872
53 1 1.37499 -13.7052 -1.82286 -4.57539
54 1 1.26271 -11.3307 1.20681 -4.59036
55 1 3.91136 -13.8915 1.18139 -4.56081
56 1 3.90114 -11.1908 -1.73079 -4.51698
57 1 5.18439 -14.8459 -3.079 -4.54325
58 1 5.11931 -12.5296 -0.23851 -4.58022
59 1 8.01655 -15.2829 -0.103358 -4.62298
60 1 7.78685 -12.853 -3.2983 -4.49231
61 1 6.56489 -13.9592 -1.51275 -4.42177
62 1 6.27226 -11.3526 1.4588 -4.55563
63 1 8.91767 -13.9315 1.68421 -4.51377
64 1 8.69902 -11.4754 -1.53105 -4.49022
65 1 10.4596 -15.6302 -2.91076 -4.47473
66 1 9.89535 -12.4538 0.166042 -4.49313
67 1 12.8524 -15.1035 -0.749694 -4.62229
68 1 12.3451 -12.3686 -2.59516 -4.35142
69 1 10.9974 -13.8818 -1.37061 -4.67424
70 1 11.4319 -11.2709 1.56491 -4.62625
71 1 14.1109 -13.4523 0.319768 -4.00537
72 1 13.8354 -11.4139 -1.06483 -5.2749
73 1 15.9422 -12.7645 -1.28899 -4.08317
74 1 16.3264 -10.8067 -0.0401487 -3.82064
75 1 -17.6904 -7.2843 56.7809 -4.26592
76 1 -18.7136 -5.87308 2.35697 -4.00393
77 1 -16.5369 -8.85702 1.49877 -3.63563
78 1 -16.6859 -6.57262 -1.74717 -4.48246
79 1 -15.3051 -10.6465 57.295 -3.9761
80 1 -15.3604 -7.77759 -0.280502 -4.51593
81 1 -12.83 -10.3687 -0.541749 -4.53763
82 1 -12.9825 -7.60387 57.3346 -4.53793
83 1 -14.1509 -9.05936 -1.96452 -4.61521
84 1 -13.951 -6.6783 1.13304 -4.48248
85 1 -11.7139 -9.07123 1.0621 -4.52432
86 1 -11.7005 -6.23062 -1.83413 -4.56706
87 1 -10.3873 -10.0278 57.4627 -4.59853
88 1 -10.4929 -7.47292 -0.211938 -4.57439
89 1 -7.68762 -9.92133 -0.389195 -4.53226
90 1 -7.87386 -7.61586 57.2494 -4.54758
91 1 -9.19776 -8.65631 -1.79017 -4.56205
92 1 -9.19077 -6.22935 1.40624 -4.49776
93 1 -6.49199 -8.61589 1.25074 -4.48988
94 1 -6.64261 -6.40047 -1.79611 -4.52159
95 1 -4.98719 -10.0164 57.2812 -4.55025
96 1 -5.1945 -7.37454 -0.248871 -4.5025
97 1 -2.5737 -9.97144 -0.428921 -4.52103
98 1 -2.36121 -7.52913 57.4306 -4.53522
99 1 -3.85045 -8.63984 -1.81805 -4.56402
100 1 -4.00144 -6.13023 1.32566 -4.50939
101 1 -1.31935 -8.58678 1.00394 -4.52984
102 1 -1.04905 -6.18946 -1.73745 -4.52161
103 1 0.194895 -10.0388 57.2638 -4.53741
104 1 0.186991 -7.29072 -0.174775 -4.51552
105 1 2.52525 -10.0598 -0.309442 -4.54468
106 1 2.53098 -7.33757 57.5111 -4.49617
107 1 1.26355 -8.63285 -1.81047 -4.54361
108 1 1.32568 -5.95341 1.41129 -4.50144
109 1 3.66971 -8.75637 1.30111 -4.53486
110 1 3.92142 -6.17726 -1.69237 -4.58338
111 1 5.2015 -9.96558 57.3894 -4.56503
112 1 5.09295 -7.59018 -0.24487 -4.54136
113 1 7.58969 -10.0394 -0.032197 -4.49642
114 1 7.69415 -7.51964 57.3709 -4.49921
115 1 6.57855 -8.80739 -1.7082 -4.50588
116 1 6.16391 -6.26226 1.41345 -4.56033
117 1 8.83524 -8.79194 1.51631 -4.56162
118 1 8.78283 -6.17504 -1.59218 -4.5405
119 1 10.1409 -10.1219 -2.85163 -4.56389
120 1 10.0711 -7.37154 0.0432529 -4.52774
121 1 12.7176 -9.83288 0.295653 -4.38954
122 1 12.8686 -7.79668 -2.99481 -4.48193
123 1 11.4573 -8.81287 -1.41647 -4.51749
124 1 11.5871 -6.39361 1.72014 -4.53993
125 1 14.2814 -8.37429 1.49346 -4.57684
126 1 14.0193 -6.2138 -1.62518 -4.60704
127 1 14.8582 -10.3049 -2.99808 -4.37877
128 1 15.5239 -7.40222 -0.347834 -4.68056
129 1 16.8079 -6.86278 57.2938 -4.34015
130 1 16.517 -9.17746 -1.73557 -4.23355
131 1 16.9033 -5.74254 0.320784 -3.6284
132 1 18.617 -5.45349 57.3776 -3.9782
133 1 -18.1921 -5.24915 -0.440427 -3.89497
134 1 -17.5905 -2.39612 -3.07346 -5.04412
135 1 -18.8217 -3.0725 -1.09915 -4.22025
136 1 -17.7427 -1.93844 0.889235 -4.59669
137 1 -16.7771 -4.93949 1.40804 -4.53269
138 1 -16.4287 -0.653899 -1.90842 -4.53169
139 1 -15.1736 -5.20863 -2.92631 -4.47013
140 1 -15.5445 -1.86883 -0.0217995 -4.52524
141 1 -12.9259 -4.98174 -0.161692 -4.58363
142 1 -13.2616 -2.65844 57.4437 -4.4867
143 1 -14.4496 -3.60306 -1.34778 -4.41462
144 1 -14.1357 -0.683041 1.51318 -4.47747
145 1 -11.7459 -3.50173 1.38177 -4.53489
146 1 -11.693 -1.3376 -1.96743 -4.50282
147 1 -10.3603 -4.93116 -3.28293 -4.53354
148 1 -10.4344 -2.3071 -0.16983 -4.51897
149 1 -7.68716 -5.06669 -0.0872525 -4.49142
150 1 -7.96451 -2.54391 57.3884 -4.54737
151 1 -9.17822 -3.62951 -1.56127 -4.46643
152 1 -8.9477 -1.14037 1.37775 -4.54269
153 1 -6.5575 -3.66525 1.47277 -4.55536
154 1 -6.57898 -1.37376 -1.78772 -4.54717
155 1 -5.25915 -5.06237 57.528 -4.5841
156 1 -5.32865 -2.50341 -0.151501 -4.53468
157 1 -2.51077 -5.10224 -0.195617 -4.5312
158 1 -2.71273 -2.32222 57.4981 -4.51757
159 1 -3.85286 -3.7634 -1.64866 -4.58007
160 1 -3.99025 -1.14153 1.24089 -4.57513
161 1 -1.4595 -3.64607 1.45447 -4.52079
162 1 -1.25855 -1.08141 -1.64415 -4.5871
163 1 -0.151397 -4.67658 57.3503 -4.55521
164 1 -0.0767278 -2.58288 -0.127922 -4.52668
165 1 2.54604 -4.78494 -0.292855 -4.49999
166 1 2.56464 -2.19832 57.258 -4.52364
167 1 1.33095 -3.52965 -1.81304 -4.49693
168 1 1.27111 -1.16697 1.32326 -4.54751
169 1 3.8213 -3.69417 1.30879 -4.54124
170 1 3.81294 -1.07175 -1.73752 -4.54059
171 1 5.1803 -4.91831 57.3789 -4.54737
172 1 5.15954 -2.28934 -0.160459 -4.55253
173 1 7.55917 -4.98926 0.0151061 -4.49909
174 1 7.59195 -2.3579 -3.02166 -4.59763
175 1 6.3575 -3.73912 -1.60761 -4.57016
176 1 6.37027 -1.19115 1.49888 -4.50855
177 1 8.92317 -3.69075 1.7078 -4.5396
178 1 8.97378 -1.05613 -1.4952 -4.50955
179 1 10.2685 -4.90267 -2.82405 -4.50335
180 1 10.0886 -2.36144 0.25493 -4.56899
181 1 12.8535 -5.12736 0.285653 -4.48647
182 1 12.6779 -2.71176 -2.58035 -4.49037
183 1 11.3894 -3.87854 -0.968842 -4.52803
184 1 11.4616 -1.05639 1.66447 -4.61346
185 1 14.144 -3.88878 1.83516 -4.49751
186 1 13.9519 -1.39204 -1.08871 -4.56371
187 1 15.3945 -4.99715 -2.99148 -4.6396
188 1 15.3824 -2.78425 0.132697 -4.48756
189 1 18.464 -4.57822 -1.06922 -4.69632
190 1 17.8777 -2.17056 57.1579 -4.70956
191 1 16.6007 -3.39066 -1.80483 -4.6207
192 1 16.7035 -1.48791 1.6962 -4.39398
193 1 19.4683 -2.42613 -0.109124 -4.13761
194 1 19.1835 -0.94016 -1.99656 -3.72901
195 1 -19.7079 -1.43635 -2.47037 -4.33128
196 1 -18.4531 0.291598 1.03897 -4.35098
197 1 -18.0264 2.30089 -2.95542 -4.36088
198 1 -18.3856 0.298671 -1.48223 -4.36938
199 1 -18.5267 5.17234 1.99217 -4.36403
200 1 -16.8361 1.8568 1.66002 -4.55336
201 1 -16.8417 3.40746 -1.27288 -4.47871
202 1 -15.0459 0.180713 57.1389 -4.45532
203 1 -15.1439 2.3751 -0.0209914 -4.34656
204 1 -12.6571 0.0603418 -0.314965 -4.48943
205 1 -12.96 2.62295 57.2659 -4.52836
206 1 -13.9745 1.37588 -1.70698 -4.39133
207 1 -14.2124 4.10266 1.21819 -4.484
208 1 -11.5036 1.50042 1.16852 -4.57585
209 1 -11.8527 3.85363 -1.75922 -4.55656
210 1 -10.2606 -0.0610262 -3.2421 -4.5483
211 1 -10.3029 2.88336 -0.269354 -4.54666
212 1 -7.71943 0.09143 -0.256266 -4.59897
213 1 -7.79004 2.73486 -3.18258 -4.60803
214 1 -9.04157 1.3613 -1.74203 -4.56601
215 1 -9.03834 3.97401 1.38166 -4.54061
216 1 -6.49597 1.5365 1.19587 -4.54311
217 1 -6.41451 3.99621 -1.77525 -4.54794
218 1 -5.40378 0.233537 57.4471 -4.53095
219 1 -5.11811 2.7615 -0.276577 -4.54192
220 1 -2.479 0.20055 -0.0986784 -4.49498
221 1 -2.72856 2.60614 -2.9441 -4.5613
222 1 -3.92914 1.16085 -1.56777 -4.55646
223 1 -3.82244 3.86205 1.51049 -4.55012
224 1 -1.26217 1.40029 1.49156 -4.5313
225 1 -1.30272 3.92976 -1.52103 -4.59443
226 1 0.0911217 0.232708 -3.05611 -4.51699
227 1 -0.0327803 2.70795 0.0797107 -4.52361
228 1 2.60529 0.218492 -0.0858609 -4.57066
229 1 2.63763 2.62236 -3.08529 -4.50542
230 1 1.29703 1.56159 -1.52485 -4.53058
231 1 1.24682 4.09727 1.60089 -4.62059
232 1 3.88577 1.32065 1.53671 -4.51805
233 1 3.76135 3.85991 -1.44361 -4.48767
234 1 5.21385 0.224171 -2.95028 -4.49919
235 1 5.06246 2.83841 0.294349 -4.52301
236 1 7.6284 0.146303 -0.054411 -4.54729
237 1 7.59304 2.45859 -3.08273 -4.54171
238 1 6.30331 1.55769 -1.32521 -4.51194
239 1 6.37671 4.22944 1.6446 -4.54151
240 1 8.83744 1.62734 1.57913 -4.51612
241 1 8.71653 3.83545 -1.55632 -4.50476
242 1 10.4437 0.0516236 -2.89028 -4.55846
243 1 10.1652 2.69163 -0.0896634 -4.52128
244 1 12.8879 0.226187 0.331396 -4.60683
245 1 12.8404 2.89187 -2.79584 -4.3422
246 1 11.5738 1.3789 -1.29764 -4.51497
247 1 11.6465 4.08469 1.46376 -4.41215
248 1 14.2253 1.516 1.67758 -4.50108
249 1 14.5932 4.29162 -1.62041 -4.8442
250 1 15.0089 0.0407723 -2.63853 -4.5709
251 1 15.2975 2.66347 -0.148158 -4.19785
252 1 17.9639 -0.424023 -0.00604207 -4.87307
253 1 17.5795 1.87747 57.2742 -4.42034
254 1 16.6658 1.14157 -1.39895 -4.41387
255 1 16.5888 4.0985 1.177 -4.8903
256 1 19.1583 0.801341 1.81089 -4.2738
257 1 19.0506 3.61913 57.6589 -4.23025
258 1 19.8855 1.45585 57.0857 -3.794
259 1 -18.543 4.70425 -0.311515 -3.47553
260 1 -17.6127 7.81348 56.8543 -4.51894
261 1 -18.1577 6.0119 -2.35139 -4.32804
262 1 -16.6252 6.54614 1.93257 -4.6106
263 1 -16.5906 9.0465 -1.94445 -3.53784
264 1 -15.9577 4.93696 -2.90275 -5.31062
265 1 -15.7456 7.98944 -0.0263704 -4.36979
266 1 -13.028 5.33808 -0.298328 -4.57819
267 1 -12.8032 7.71933 -2.97011 -4.49717
268 1 -14.4895 6.57627 -1.66205 -4.29052
269 1 -14.2934 9.25286 1.245 -4.4973
270 1 -11.6815 6.54197 1.24979 -4.55336
271 1 -11.6338 9.36038 -1.6042 -4.49937
272 1 -10.4738 5.17679 57.542 -4.61766
273 1 -10.4478 7.92617 -0.184926 -4.60415
274 1 -7.68739 5.21952 -0.178578 -4.56152
275 1 -8.01961 7.88889 -3.1246 -4.57177
276 1 -9.06977 6.39741 -1.55118 -4.51004
277 1 -8.92536 9.06173 1.25965 -4.53549
278 1 -6.45272 6.55701 1.29206 -4.54477
279 1 -6.61442 9.19428 -1.7681 -4.61177
280 1 -5.38644 5.46361 57.3255 -4.5552
281 1 -5.33543 7.77785 -0.354143 -4.5633
282 1 -2.64844 5.24551 -0.017363 -4.5281
283 1 -2.69603 7.88295 -3.09213 -4.58258
284 1 -3.8906 6.40956 -1.70344 -4.57625
285 1 -3.96839 8.9159 1.22735 -4.54491
286 1 -1.24733 6.59499 1.51621 -4.52725
287 1 -1.46065 9.20234 -1.49067 -4.57819
288 1 -0.0864117 5.3512 57.705 -4.54592
289 1 -0.0580509 7.89727 0.0178162 -4.56644
290 1 2.52869 5.38565 0.0664049 -4.56516
291 1 2.4584 7.90542 -3.08525 -4.52555
292 1 1.20722 6.61225 -1.42121 -4.53477
293 1 1.08882 9.25832 1.5003 -4.55098
294 1 3.86637 6.69365 1.49806 -4.59517
295 1 3.75802 9.15569 -1.57812 -4.50743
296 1 4.96901 5.09675 -3.03061 -4.53519
297 1 5.19412 7.95213 -0.0118249 -4.56184
298 1 7.61628 5.24079 -0.0609407 -4.53723
299 1 7.45351 7.47075 57.2838 -4.53684
300 1 6.1718 6.49753 -1.5659 -4.53678
301 1 6.72377 9.25673 1.17456 -4.50729
302 1 9.13587 6.68205 1.25145 -4.44362
303 1 8.66722 9.02469 -2.07428 -4.58507
304 1 10.0278 4.99584 57.3151 -4.49875
305 1 10.1327 7.8774 -0.575876 -4.34036
306 1 12.9133 5.35777 -0.32949 -4.31555
307 1 12.2725 7.47422 57 -4.49243
308 1 11.2545 6.26543 -1.85715 -4.53357
309 1 12.119 9.43132 1.80203 -4.45723
310 1 14.244 6.54375 1.29445 -4.54219
311 1 13.7473 8.35972 -2.04014 -4.30699
312 1 14.7894 5.04671 56.6784 -4.32233
313 1 15.8892 7.99829 0.308745 -4.39756
314 1 17.9988 4.59675 -0.656616 -3.90885
315 1 16.7055 6.52286 56.9768 -4.57517
316 1 16.312 6.15384 -1.28026 -4.29986
317 1 16.9131 8.62707 2.38659 -4.35637
318 1 18.7634 5.05889 1.54716 -4.14596
319 1 -15.5582 13.142 2.72465 -4.13943
320 1 -15.0434 10.47 -2.9463 -4.66779
321 1 -14.9911 13.6739 0.370118 -4.11196
322 1 -12.9119 10.6776 0.0691023 -4.53824
323 1 -12.8504 12.9115 -2.85384 -4.582
324 1 -14.2366 12.0513 -1.25628 -4.4525
325 1 -13.3575 13.9596 1.969 -4.8136
326 1 -11.2875 11.5362 1.39596 -4.36005
327 1 -12.0661 14.8353 -1.57997 -4.51026
328 1 -10.4371 10.5544 57.3335 -4.59071
329 1 -10.8243 13.0512 -0.295133 -4.35647
330 1 -8.00088 10.5397 -0.315381 -4.55293
331 1 -7.99043 12.7921 57.0154 -4.50733
332 1 -9.24855 11.8199 -1.8005 -4.44687
333 1 -9.23815 14.1253 1.09745 -4.42562
334 1 -6.39636 11.5763 1.08307 -4.5535
335 1 -6.76659 14.144 -2.29227 -4.46594
336 1 -5.30096 10.4151 -3.18493 -4.55251
337 1 -5.60599 13.0957 -0.581848 -4.50198
338 1 -2.91551 10.515 -0.191446 -4.56771
339 1 -2.4764 12.9953 57.328 -4.56027
340 1 -3.93112 11.9053 -1.85821 -4.58579
341 1 -4.17707 14.2004 0.937049 -4.44089
342 1 -1.5858 11.6474 1.47148 -4.59275
343 1 -1.37739 14.1069 -1.65582 -4.55534
344 1 0.0524928 10.2932 -2.96961 -4.54327
345 1 -0.191054 12.8945 -0.0185367 -4.50859
346 1 2.51996 10.4683 0.032271 -4.5811
347 1 2.62382 12.9902 -3.14789 -4.49985
348 1 1.35178 11.7372 -1.5823 -4.54033
349 1 1.10131 14.0164 1.65993 -4.58786
350 1 3.91668 11.8803 1.26712 -4.59474
351 1 3.67449 14.3553 -1.55359 -4.43598
352 1 4.92158 10.2145 57.3781 -4.41847
353 1 5.27 13.1285 -0.113798 -4.37832
354 1 7.86142 10.5398 -0.5303 -4.35705
355 1 7.02979 12.5813 57.3072 -4.32544
356 1 6.04691 11.4207 -1.65996 -4.47908
357 1 6.10029 14.5371 1.82281 -4.50771
358 1 9.47808 12.3286 2.02682 -4.43867
359 1 8.39223 14.0688 -1.86045 -4.66996
360 1 9.82565 10.1257 56.9878 -4.39534
361 1 9.35192 12.4437 -0.311371 -4.70062
362 1 12.1096 9.46905 -0.680007 -4.875
363 1 12.3975 12.0114 56.9724 -4.25845
364 1 10.9056 11.323 -1.86112 -4.69633
365 1 10.9221 14.0109 2.15966 -4.48631
366 1 13.7506 11.0768 2.16612 -4.47146
367 1 12.7707 12.9366 -1.56738 -4.3088
368 1 15.0149 9.60887 57.0477 -4.1637
369 1 13.7224 11.166 -0.21932 -4.43046
370 1 15.425 9.81681 -1.20717 -4.33998
371 1 -13.5625 15.4666 0.0320673 -3.84734
372 1 -12.4944 16.1146 2.6325 -3.99622
373 1 -9.64809 15.469 57.1533 -4.52165
374 1 -8.05335 15.1803 -0.73338 -4.48198
375 1 -8.68039 17.6329 56.6823 -4.51386
376 1 -9.24355 17.0463 -1.63566 -4.4416
377 1 -6.80434 16.2537 0.973419 -4.71846
378 1 -7.44643 18.3754 -2.0612 -3.57998
379 1 -5.37674 15.5706 57.2606 -4.54887
380 1 -5.78928 17.9384 -0.364218 -4.64511
381 1 -2.91453 15.5213 -0.471366 -4.58917
382 1 -2.81418 18.3204 57.3426 -4.55229
383 1 -4.16066 17.0268 -1.8291 -4.50607
384 1 -5.19141 19.0011 1.63837 -4.07114
385 1 -1.62096 16.4822 1.26675 -4.51704
386 1 -1.13818 19.2202 -1.78315 -3.63877
387 1 -0.0424787 15.4075 -3.11161 -4.55365
388 1 -0.346596 17.9956 0.0133214 -4.72184
389 1 2.24381 15.4535 0.152858 -4.48133
390 1 2.46758 18.1115 -2.50647 -4.42758
391 1 0.990373 16.73 -1.44391 -4.64573
392 1 0.920934 19.3388 1.40985 -4.38982
393 1 3.43173 16.8749 1.73279 -4.57209
394 1 2.5188 19.4972 -0.593418 -4.23816
395 1 4.74792 15.4267 57.3252 -4.36902
396 1 4.48025 18.2671 0.091528 -4.31286
397 1 7.4583 16.2131 -0.901789 -4.32153
398 1 8.94801 17.4155 -2.41953 -4.26023
399 1 5.61532 17.1623 -1.98678 -4.35411
400 1 5.22267 19.3133 1.9888 -3.86673
401 1 7.80373 16.1107 1.63467 -4.41888
402 1 9.55351 14.6406 56.7894 -4.35619
403 1 11.1056 14.2208 -0.242348 -4.21254
404 1 10.5734 15.5566 -2.19591 -4.11829
405 1 0.988978 20.0084 -2.39521 -4.37299
406 1 -12.7891 -15.8748 2.07174 -4.21515
407 1 -7.81259 -17.9052 2.21929 -3.51227
408 1 -9.1111 -16.422 7.14757 -3.69127
409 1 -6.31369 -18.9471 8.11813 -4.1259
410 1 -6.49886 -16.9942 4.08312 -4.45101
411 1 -5.46061 -18.0238 5.99899 -4.5262
412 1 -2.56509 -18.1717 2.89316 -4.46486
413 1 -3.53305 -19.0535 5.05096 -3.66757
414 1 -3.90749 -16.6016 6.81691 -4.45449
415 1 -1.594 -19.0539 6.4777 -4.23401
416 1 -1.22129 -16.6442 4.15436 -4.70375
417 1 1.24359 -20.4973 0.92852 -4.00336
418 1 0.167646 -18.0389 5.33502 -4.35046
419 1 2.64365 -17.7328 2.26761 -4.54174
420 1 1.12913 -19.2822 3.26712 -4.20932
421 1 1.09133 -16.345 6.64391 -4.40061
422 1 4.3236 -18.6657 7.74823 -4.35107
423 1 3.96609 -16.7092 4.13871 -4.42618
424 1 5.46721 -17.7401 5.71928 -4.49616
425 1 8.15638 -17.6146 2.41138 -4.45518
426 1 7.51095 -18.2794 4.56924 -3.4386
427 1 6.53142 -16.2702 7.24556 -4.43311
428 1 9.14674 -16.6438 4.40107 -4.40224
429 1 12.8276 -14.8429 8.53971 -4.51515
430 1 -17.3814 -9.72779 4.71689 -4.194
431 1 -16.0681 -11.8489 4.73239 -4.20321
432 1 -13.1981 -14.624 4.00521 -4.17221
433 1 -12.8744 -12.6498 2.56786 -4.78671
434 1 -15.097 -13.5141 3.12931 -4.16163
435 1 -14.5836 -11.5405 6.56453 -4.47158
436 1 -12.1337 -14.0661 6.19289 -4.31742
437 1 -11.5906 -11.3792 4.13162 -4.43189
438 1 -10.4517 -16.0328 2.28299 -4.1829
439 1 -10.3277 -12.8317 5.47459 -4.55939
440 1 -8.07405 -15.6683 5.24263 -4.56092
441 1 -7.98422 -12.8578 2.74797 -4.55765
442 1 -9.54101 -14.3669 3.85494 -4.4389
443 1 -9.31808 -11.5647 7.12232 -4.51837
444 1 -6.8465 -14.3077 6.97862 -4.48423
445 1 -6.64554 -11.4259 4.1921 -4.57742
446 1 -5.33661 -15.4864 2.78494 -4.56191
447 1 -5.44788 -12.8415 5.66256 -4.59629
448 1 -2.71791 -15.2915 5.35677 -4.51947
449 1 -2.59885 -12.5951 2.73688 -4.57782
450 1 -4.10227 -13.9682 4.04255 -4.59993
451 1 -3.99077 -11.496 7.14049 -4.53231
452 1 -1.38067 -14.1095 7.0406 -4.52574
453 1 -1.18169 -11.3362 4.17338 -4.56579
454 1 0.0728433 -15.2772 2.64828 -4.55323
455 1 0.148455 -12.6437 5.6708 -4.53125
456 1 2.89531 -15.2034 5.58815 -4.56427
457 1 2.66741 -12.503 2.7096 -4.56813
458 1 1.43281 -13.9522 4.1569 -4.61282
459 1 1.22965 -11.3976 7.34404 -4.51442
460 1 3.73715 -13.7087 7.17266 -4.48382
461 1 3.9463 -11.4701 4.42214 -4.51088
462 1 5.17007 -15.0555 2.88549 -4.53242
463 1 5.26697 -12.4711 5.97935 -4.53714
464 1 8.08126 -15.0928 5.85707 -4.47894
465 1 7.54541 -12.5094 2.95614 -4.56785
466 1 6.47698 -13.8412 4.52865 -4.56637
467 1 6.38539 -11.1375 7.59742 -4.54094
468 1 9.00855 -13.7759 7.55258 -4.48225
469 1 8.95575 -11.3161 4.45127 -4.57446
470 1 10.3763 -15.1077 3.04 -4.52524
471 1 10.4208 -12.721 5.86904 -4.53534
472 1 13.2185 -14.5338 6.20452 -3.68102
473 1 13.1186 -12.6507 2.54049 -4.38708
474 1 11.9247 -13.8078 4.36241 -4.50603
475 1 11.7141 -11.35 7.36037 -4.54447
476 1 13.3601 -12.5697 8.57217 -4.61605
477 1 14.1741 -11.1467 4.04202 -4.43024
478 1 14.6906 -12.8922 5.76285 -3.55724
479 1 15.5636 -12.5639 8.10751 -4.42092
480 1 -17.7694 -7.85859 3.2655 -4.63614
481 1 -18.9739 -4.69685 8.86815 -4.31473
482 1 -16.9601 -8.78894 7.1086 -4.26214
483 1 -16.2685 -6.61524 4.49272 -4.67524
484 1 -15.4935 -10.1111 3.22349 -4.59004
485 1 -15.1616 -7.70342 6.13472 -4.61991
486 1 -12.7356 -10.2636 5.9122 -4.59303
487 1 -12.7412 -7.76554 2.72722 -4.4435
488 1 -14.0252 -8.85362 4.45077 -4.60484
489 1 -13.9913 -6.28941 7.59602 -4.54782
490 1 -11.6849 -8.88845 7.60448 -4.43627
491 1 -11.6987 -6.30973 4.22502 -4.53284
492 1 -10.241 -10.2962 2.49095 -4.52309
493 1 -10.5216 -7.70803 5.70713 -4.45011
494 1 -7.89007 -10.182 5.84325 -4.5708
495 1 -7.86954 -7.64861 3.08542 -4.46791
496 1 -9.22529 -9.09774 4.30336 -4.55105
497 1 -9.41901 -6.44181 7.43727 -4.53635
498 1 -6.61416 -8.84296 7.52513 -4.55751
499 1 -6.69219 -6.24258 4.6002 -4.55282
500 1 -5.32479 -9.99516 2.81372 -4.57717
501 1 -5.21959 -7.53598 5.98481 -4.55699
502 1 -2.66855 -10.218 5.61426 -4.55618
503 1 -2.62979 -7.42409 2.74113 -4.55349
504 1 -3.99869 -8.71864 4.25631 -4.55798
505 1 -3.8819 -6.37342 7.45094 -4.50868
506 1 -1.43313 -9.11459 7.2514 -4.47368
507 1 -1.43938 -6.2062 4.38301 -4.58302
508 1 -0.0931012 -9.89547 2.54099 -4.55457
509 1 -0.16278 -7.74712 5.72211 -4.57548
510 1 2.47825 -10.2388 5.77601 -4.52395
511 1 2.50709 -7.37434 2.84377 -4.54508
512 1 1.28518 -8.95988 4.2945 -4.51359
513 1 1.19997 -6.43294 7.34586 -4.51968
514 1 3.69593 -8.93432 7.35899 -4.508
515 1 3.78987 -6.20901 4.423 -4.60419
516 1 4.93871 -9.95054 2.8222 -4.55279
517 1 5.0985 -7.49837 5.86264 -4.53219
518 1 7.59943 -9.90586 5.97989 -4.5135
519 1 7.67871 -7.34558 2.99104 -4.54208
520 1 6.3216 -8.80104 4.31842 -4.58344
521 1 6.24317 -6.26268 7.49692 -4.60209
522 1 8.96543 -8.70724 7.46937 -4.62568
523 1 8.82987 -6.17792 4.59221 -4.50406
524 1 10.2435 -9.89614 2.99478 -4.55904
525 1 10.3157 -7.32583 6.06213 -4.54106
526 1 13.0787 -10.1186 5.86685 -4.55064
527 1 12.9693 -7.54784 3.27099 -4.48538
528 1 11.5691 -8.83567 4.59221 -4.57436
529 1 11.7695 -6.41143 7.5669 -4.56014
530 1 14.5123 -8.93886 7.31322 -4.50685
531 1 14.0767 -6.29459 4.92575 -4.60316
532 1 15.7291 -9.84871 2.49755 -4.27862
533 1 15.8393 -7.32238 6.02534 -4.54112
534 1 17.1604 -6.10652 2.65547 -4.7428
535 1 16.3996 -8.07951 3.76857 -3.62812
536 1 17.1373 -6.18341 7.8269 -4.04693
537 1 18.4718 -4.40395 3.78881 -4.41582
538 1 -17.5926 -5.10252 5.72263 -4.64978
539 1 -16.8227 -2.98887 2.80208 -4.32393
540 1 -18.6668 -3.95843 3.87853 -4.57655
541 1 -19.4238 -1.90583 4.87338 -4.01117
542 1 -16.3137 -3.60976 6.91528 -4.54783
543 1 -17.15 -1.01977 4.42576 -5.30469
544 1 -14.9935 -5.51208 2.9413 -4.45732
545 1 -15.207 -2.29231 5.48761 -4.2127
546 1 -12.9978 -5.00608 5.80647 -4.49149
547 1 -13.02 -2.24072 2.75595 -4.50139
548 1 -13.9742 -3.76379 4.12637 -4.39622
549 1 -14.1307 -1.08908 7.12927 -4.50189
550 1 -11.5671 -3.76057 7.18374 -4.52832
551 1 -11.486 -1.17781 4.12367 -4.61366
552 1 -10.5281 -4.97019 2.73876 -4.54138
553 1 -10.2955 -2.64893 5.58961 -4.5556
554 1 -8.06204 -5.14422 6.06961 -4.45742
555 1 -7.85881 -2.47287 2.91189 -4.52743
556 1 -9.03289 -4.12976 4.26393 -4.50708
557 1 -8.88455 -1.34695 7.1557 -4.46835
558 1 -6.53952 -3.95896 7.28948 -4.49364
559 1 -6.31319 -1.32434 4.26345 -4.49727
560 1 -5.26818 -5.13021 2.9732 -4.48841
561 1 -5.15632 -2.52785 5.86952 -4.54325
562 1 -2.75608 -5.08364 5.97763 -4.51352
563 1 -2.65939 -2.41577 2.97075 -4.47301
564 1 -3.86213 -3.84498 4.40719 -4.59592
565 1 -3.69286 -1.41189 7.34197 -4.5652
566 1 -1.26025 -3.84649 7.35611 -4.55762
567 1 -1.36747 -1.01571 4.41183 -4.58612
568 1 -0.0813576 -4.7838 3.00745 -4.58945
569 1 -0.0796097 -2.22124 5.95239 -4.55742
570 1 2.32162 -4.96648 5.87611 -4.57022
571 1 2.63218 -2.36036 2.777 -4.49572
572 1 1.23497 -3.45215 4.46889 -4.56054
573 1 1.2374 -0.878229 7.4964 -4.53288
574 1 3.67635 -3.7777 7.40122 -4.58341
575 1 3.94258 -1.43519 4.58117 -4.50058
576 1 5.07828 -4.91196 2.91883 -4.49552
577 1 5.21112 -2.66728 6.10773 -4.5635
578 1 7.71222 -4.90687 6.26911 -4.53109
579 1 7.58 -2.34068 3.1018 -4.56908
580 1 6.4493 -3.87541 4.57554 -4.50053
581 1 6.39087 -1.17237 7.479 -4.56153
582 1 9.05853 -3.71649 7.76779 -4.57034
583 1 8.88714 -1.11009 4.56316 -4.54009
584 1 10.3151 -4.92035 3.14608 -4.58562
585 1 10.0606 -2.4644 6.03377 -4.52536
586 1 12.861 -4.80067 6.19555 -4.54804
587 1 12.8623 -2.38607 3.0833 -4.56152
588 1 11.5214 -3.67344 4.61607 -4.55616
589 1 11.5117 -1.16286 7.58277 -4.51181
590 1 14.4343 -3.65099 7.57929 -4.51556
591 1 14.1283 -1.20421 4.80584 -4.48487
592 1 15.3272 -4.84798 3.62008 -4.66207
593 1 15.6567 -2.04582 6.51288 -4.44345
594 1 17.8847 -4.63009 6.14193 -3.51894
595 1 18.8538 -2.52615 2.30313 -4.32634
596 1 16.6196 -3.24137 4.67293 -4.57026
597 1 16.7761 -0.0294866 7.29675 -4.32437
598 1 18.9224 -0.595477 8.29188 -4.40774
599 1 19.4964 -0.651794 3.57251 -4.33273
600 1 -19.2466 -0.102662 3.40783 -4.0043
601 1 -17.7417 0.47832 6.22532 -4.44716
602 1 -18.2709 3.05 3.18403 -4.40949
603 1 -19.3064 1.83462 5.047 -4.36352
604 1 -18.4412 3.52102 6.62489 -4.17143
605 1 -16.0945 1.52418 7.40527 -4.55224
606 1 -17.0006 4.25726 4.68888 -4.94329
607 1 -15.625 0.428736 3.02599 -4.38147
608 1 -15.2246 3.01697 5.80236 -4.36346
609 1 -12.6785 0.122736 5.6885 -4.58281
610 1 -12.8036 2.72911 2.69935 -4.56129
611 1 -14.0874 1.58694 4.37365 -4.60464
612 1 -13.7272 3.98103 7.28682 -4.57846
613 1 -11.3816 1.15653 7.41849 -4.55848
614 1 -11.335 3.76977 4.22658 -4.53191
615 1 -10.1923 0.327579 2.75839 -4.57597
616 1 -10.2844 2.54492 5.94589 -4.49938
617 1 -7.46953 -0.0459857 5.73048 -4.55246
618 1 -7.73616 2.62443 2.94029 -4.51649
619 1 -8.94123 1.29452 4.45218 -4.57127
620 1 -8.7807 3.64876 7.37534 -4.55748
621 1 -6.24892 1.19558 7.4114 -4.5819
622 1 -6.30479 3.80893 4.47156 -4.56851
623 1 -5.41361 0.113795 2.69199 -4.49523
624 1 -4.87779 2.52653 5.9947 -4.5296
625 1 -2.61899 0.200292 5.99742 -4.51181
626 1 -2.42209 2.60569 3.06053 -4.53856
627 1 -3.81448 1.22123 4.25564 -4.47341
628 1 -3.79905 3.90982 7.52881 -4.53613
629 1 -1.08887 1.30473 7.34061 -4.51444
630 1 -1.03013 3.85152 4.46753 -4.55658
631 1 0.0332644 0.124976 3.03377 -4.52071
632 1 0.281865 2.72747 6.06348 -4.51554
633 1 2.67697 0.0168446 5.90951 -4.55936
634 1 2.62006 2.78899 3.01156 -4.58061
635 1 1.35309 1.43871 4.48123 -4.60078
636 1 1.48419 4.0539 7.81238 -4.50149
637 1 3.69638 1.40874 7.46521 -4.51423
638 1 3.70635 4.08346 4.64744 -4.57827
639 1 5.07884 0.0701808 3.04639 -4.53444
640 1 5.06762 2.7067 6.00336 -4.58399
641 1 7.64616 0.107939 6.0424 -4.51845
642 1 7.58734 2.97617 3.22971 -4.53844
643 1 6.37401 1.37402 4.42965 -4.5568
644 1 6.35446 3.92569 7.5526 -4.54971
645 1 8.87256 1.41223 7.73574 -4.53927
646 1 9.00445 4.05585 4.70192 -4.47684
647 1 10.1339 0.254492 3.05716 -4.59012
648 1 10.2397 2.65527 6.25149 -4.55702
649 1 12.6272 0.0143463 5.97938 -4.54913
650 1 12.7566 2.76586 3.07029 -4.58994
651 1 11.3838 1.48885 4.53627 -4.52168
652 1 11.4243 4.22169 7.47364 -4.51385
653 1 13.8724 1.25485 7.58621 -4.53678
654 1 14.1335 4.00894 4.50075 -4.51854
655 1 15.2306 -0.121111 2.94829 -4.50983
656 1 15.183 2.5338 6.05581 -4.52997
657 1 18.0416 -0.107213 5.2753 -4.49759
658 1 17.4483 2.27369 2.3863 -4.54548
659 1 16.481 1.35009 4.37234 -4.63233
660 1 16.6232 3.9487 7.12144 -4.35663
661 1 19.5096 1.74652 5.90806 -4.37771
662 1 19.1773 3.53339 3.341 -4.54973
663 1 20.6005 1.56051 3.63658 -4.20117
664 1 -18.6711 5.89556 6.91538 -4.29896
665 1 -17.4154 7.90672 3.62924 -3.73227
666 1 -18.5908 6.12265 4.39208 -4.16999
667 1 -16.4348 6.57062 7.35166 -4.73556
668 1 -16.288 9.63395 4.78314 -4.5398
669 1 -15.2729 5.04268 3.13506 -4.36729
670 1 -15.2405 7.82182 5.79097 -4.49456
671 1 -12.4422 5.28718 5.77502 -4.52419
672 1 -13.0336 7.93565 2.74578 -4.44974
673 1 -14.0048 6.40199 4.43689 -4.49399
674 1 -13.9389 8.93145 7.52912 -4.60311
675 1 -11.1002 6.18113 7.52598 -4.52444
676 1 -11.4423 8.68633 4.50384 -4.43195
677 1 -10.2684 5.30221 2.77059 -4.50411
678 1 -9.88416 7.52781 6.07564 -4.5794
679 1 -7.47297 5.13072 6.05944 -4.56413
680 1 -7.62178 7.88127 2.795 -4.48894
681 1 -8.70062 6.32478 4.41736 -4.45119
682 1 -8.61136 9.14772 7.29403 -4.524
683 1 -6.08008 6.36684 7.53315 -4.4772
684 1 -6.18452 8.98689 4.22799 -4.52326
685 1 -5.25718 5.17333 2.81927 -4.5637
686 1 -5.15317 7.54658 5.77098 -4.50579
687 1 -2.40609 4.98081 5.94015 -4.53437
688 1 -2.66614 7.97232 2.96718 -4.45994
689 1 -3.7443 6.19617 4.403 -4.56628
690 1 -3.78962 8.88141 7.22334 -4.50176
691 1 -1.05896 6.46438 7.40534 -4.52422
692 1 -1.44776 9.23255 4.6162 -4.5259
693 1 -0.0189206 5.45593 3.08963 -4.53754
694 1 0.00224981 8.05638 6.01277 -4.56771
695 1 2.66021 5.50289 6.17283 -4.4757
696 1 2.48122 8.00169 2.8619 -4.57839
697 1 1.47233 6.73076 4.59433 -4.52089
698 1 1.53578 9.04063 7.53978 -4.54685
699 1 4.10404 6.6678 7.4941 -4.51874
700 1 4.11576 9.12698 4.21771 -4.4225
701 1 5.02321 5.43546 3.1736 -4.58024
702 1 5.28802 8.14764 6.07201 -4.51809
703 1 7.72716 5.32066 6.33127 -4.49901
704 1 7.693 7.76227 2.81378 -4.44978
705 1 6.4504 6.69013 4.60292 -4.48881
706 1 6.76333 9.38466 7.44165 -4.46024
707 1 9.08974 6.83139 7.58653 -4.50101
708 1 8.91461 9.15204 4.34325 -4.60193
709 1 10.2315 5.23918 2.8572 -4.43024
710 1 10.3906 8.19647 6.01615 -4.33625
711 1 12.783 5.49506 6.00128 -4.52714
712 1 12.8257 7.53841 2.86427 -4.47637
713 1 11.3063 6.63127 4.50007 -4.56246
714 1 12.2675 9.61456 8.73325 -4.47485
715 1 14.0359 6.81615 7.58654 -4.34686
716 1 13.851 8.67761 4.6479 -4.2322
717 1 15.3739 5.19438 2.84065 -4.36702
718 1 15.4053 8.3397 6.5385 -4.71801
719 1 18.5368 3.87318 5.54475 -4.27726
720 1 18.5862 7.0188 2.95043 -4.26152
721 1 16.4938 6.81046 3.95445 -4.42567
722 1 17.0021 9.68521 7.98366 -4.04415
723 1 18.3119 6.28863 5.31019 -4.16915
724 1 -15.815 11.1902 6.44611 -3.58748
725 1 -15.3261 10.7332 2.90026 -4.5383
726 1 -14.9377 12.9998 5.09172 -4.56588
727 1 -12.4096 10.0854 6.08979 -4.5744
728 1 -12.0413 12.7075 3.32366 -4.0953
729 1 -13.508 11.3002 4.39462 -4.69744
730 1 -13.204 14.1386 6.2785 -4.06181
731 1 -11.1003 11.5911 7.36693 -4.6448
732 1 -11.0113 14.3494 5.02215 -5.36441
733 1 -10.1481 10.1767 3.02439 -4.47446
734 1 -9.44437 12.6569 5.99242 -4.35121
735 1 -7.25367 10.3489 5.74575 -4.4812
736 1 -7.66166 12.9442 2.50828 -4.5785
737 1 -8.58127 11.3954 4.12816 -4.47712
738 1 -8.31548 14.1394 7.38221 -4.49662
739 1 -6.03391 11.6537 7.40568 -4.4329
740 1 -6.35841 14.2786 4.00197 -4.64597
741 1 -5.05602 10.3661 2.68293 -4.52372
742 1 -5.03605 13.0796 5.56149 -4.44486