ITEM: TIMESTEP
166000
ITEM: NUMBER OF ATOMS
4050
ITEM: BOX BOUNDS ss ss pp
-2.1004013914814124e+01 2.0889052727241882e+01
-2.0711446128751440e+01 2.0942472814513451e+01
-2.2538650000000002e+00 5.6563865000000000e+01
ITEM: ATOMS id type x y z c_peratom
1 1 -12.1996 -15.7696 -0.366363 -4.08585
2 1 -7.50105 -18.1231 -1.28916 -4.58831
3 1 -8.77495 -17.3418 1.47883 -4.49769
4 1 -7.24355 -19.1445 0.939973 -4.39019
5 1 -6.05173 -16.4382 -0.641333 -4.68282
6 1 -5.09052 -18.1109 0.778775 -4.62497
7 1 -2.57254 -18.2051 56.4476 -4.59843
8 1 -4.44958 -18.9719 -1.32705 -3.7939
9 1 -3.68196 -17.0358 2.36364 -4.47424
10 1 -0.571064 -19.5068 2.39067 -4.33759
11 1 -1.58459 -16.9071 -0.749965 -4.52171
12 1 0.581228 -20.0721 -0.543611 -4.58287
13 1 -0.0508105 -18.097 0.537169 -4.59772
14 1 3.14668 -17.8556 56.1823 -4.6641
15 1 2.70345 -19.396 -0.926384 -3.78142
16 1 1.1812 -16.6107 2.00283 -4.57754
17 1 3.55754 -19.4482 1.20202 -4.40707
18 1 3.8957 -16.4755 -0.941069 -4.70951
19 1 5.34126 -18.0004 0.157644 -4.4366
20 1 6.95801 -18.2311 -1.58504 -4.10446
21 1 9.7259 -17.2838 1.3013 -4.2619
22 1 6.36386 -16.6953 2.0223 -4.41898
23 1 8.98662 -16.9824 -0.95489 -4.14528
24 1 11.5918 -16.0609 1.96991 -3.65473
25 1 -14.7543 -12.7894 0.345612 -4.02082
26 1 -15.0329 -14.7106 1.70761 -4.10674
27 1 -13.2858 -16.2785 1.71071 -4.223
28 1 -12.6156 -13.2356 56.6163 -4.63039
29 1 -14.1155 -14.6165 -0.978464 -4.27428
30 1 -14.0155 -11.6605 2.23957 -4.62605
31 1 -11.3608 -14.856 1.82704 -5.26088
32 1 -11.4892 -11.8294 -0.718911 -4.54594
33 1 -10.2912 -15.8444 -2.01391 -4.32749
34 1 -10.119 -13.2075 0.551228 -4.3201
35 1 -7.61357 -15.42 0.731667 -4.65923
36 1 -7.58925 -12.7659 -2.04583 -4.58668
37 1 -8.92178 -14.3699 -1.02752 -4.57338
38 1 -8.90724 -11.6417 1.89583 -4.5046
39 1 -6.38132 -14.2134 2.36823 -4.53999
40 1 -6.22451 -11.5782 -0.547906 -4.51794
41 1 -4.93915 -15.0779 56.5869 -4.50554
42 1 -5.0667 -12.93 0.86454 -4.56261
43 1 -2.60821 -15.5216 0.939617 -4.49257
44 1 -2.19833 -12.7928 -2.1602 -4.50418
45 1 -3.57163 -13.999 -0.607289 -4.5609
46 1 -3.81454 -11.5576 2.26702 -4.62157
47 1 -1.38028 -14.0853 2.24169 -4.56041
48 1 -1.24133 -11.2381 -0.71725 -4.54985
49 1 0.036161 -15.6818 56.5977 -4.52755
50 1 -0.0193641 -12.8168 0.731479 -4.53952
51 1 2.42533 -15.3046 0.547785 -4.56319
52 1 2.7724 -12.8664 56.7017 -4.53688
53 1 1.1798 -14.0307 -0.934886 -4.57537
54 1 1.13756 -11.2997 2.09915 -4.51068
55 1 3.70055 -14.2491 2.27805 -4.59698
56 1 3.84392 -11.4737 -0.453858 -4.47184
57 1 5.2986 -15.0601 -2.24299 -4.47043
58 1 5.27165 -12.8864 1.11528 -4.56662
59 1 7.95771 -15.5137 0.738075 -4.93749
60 1 7.7891 -12.6814 -1.95146 -4.58549
61 1 6.55234 -14.0579 -0.514699 -4.37923
62 1 6.58154 -11.4148 2.42015 -4.576
63 1 8.86221 -14.0711 2.39353 -4.45804
64 1 9.11722 -11.3624 -0.611113 -4.56195
65 1 10.6277 -15.5414 -2.0966 -4.38345
66 1 10.2734 -12.6351 1.13627 -4.51722
67 1 13.0092 -15.3878 0.172596 -4.56977
68 1 12.6331 -12.2626 -1.4161 -4.17072
69 1 11.2368 -13.9683 -0.47018 -4.6648
70 1 11.8209 -11.6429 2.53348 -4.57576
71 1 14.3182 -13.7458 1.34309 -4.08297
72 1 14.2275 -11.5127 0.0614878 -5.28684
73 1 16.1445 -13.0416 0.100208 -4.09169
74 1 16.5628 -10.9419 1.09648 -4.10054
75 1 -17.5673 -7.83086 56.288 -3.69484
76 1 -19.0005 -5.95469 2.99516 -3.40739
77 1 -17.1841 -8.51676 2.62686 -3.62261
78 1 -17.0626 -6.28289 -0.786706 -4.54306
79 1 -15.3062 -10.8029 -1.77393 -3.92281
80 1 -15.9642 -7.69465 0.761361 -4.5957
81 1 -12.7492 -10.388 0.627422 -4.49216
82 1 -13.0474 -7.63726 -1.8052 -4.55774
83 1 -14.4361 -9.05573 -0.43905 -4.613
84 1 -14.3038 -6.59761 2.12165 -4.54497
85 1 -11.5614 -9.06707 2.27118 -4.60364
86 1 -11.5499 -6.38412 -0.656503 -4.57291
87 1 -10.3864 -10.2575 -2.138 -4.6269
88 1 -10.304 -7.71796 0.755082 -4.62216
89 1 -7.49365 -10.1579 0.658328 -4.57149
90 1 -7.72742 -7.43173 -2.26518 -4.52174
91 1 -8.983 -8.94879 -0.806393 -4.61031
92 1 -8.9233 -6.35665 2.07213 -4.59752
93 1 -6.41787 -8.7814 2.20598 -4.56478
94 1 -6.52309 -6.17824 -0.743538 -4.58966
95 1 -5.14985 -10.3273 -2.17889 -4.55458
96 1 -5.09899 -7.42758 0.67304 -4.5783
97 1 -2.59314 -10.0462 0.854358 -4.56452
98 1 -2.46919 -7.6046 -2.21823 -4.57606
99 1 -3.87473 -8.93311 -0.724426 -4.5802
100 1 -3.82594 -6.08241 2.11438 -4.55248
101 1 -1.3168 -8.76124 2.33101 -4.61205
102 1 -1.16791 -6.22314 -0.8221 -4.59182
103 1 -0.010432 -10.0236 -2.21611 -4.56181
104 1 0.0134823 -7.5511 0.742606 -4.50042
105 1 2.56285 -9.96655 0.81411 -4.59597
106 1 2.65319 -7.56875 56.5671 -4.53175
107 1 1.33429 -8.68178 -0.707407 -4.51409
108 1 1.13133 -6.18819 2.22553 -4.57921
109 1 3.80651 -8.757 2.41278 -4.57652
110 1 3.75961 -6.19893 -0.584279 -4.58596
111 1 5.21745 -10.2256 56.7734 -4.55294
112 1 5.11667 -7.44943 0.903117 -4.59173
113 1 7.73807 -10.189 0.824129 -4.57423
114 1 7.75805 -7.35237 -2.17474 -4.53417
115 1 6.45813 -8.66704 -0.637855 -4.56615
116 1 6.49092 -6.27842 2.4198 -4.61912
117 1 9.1759 -8.90076 2.2185 -4.60546
118 1 8.92364 -6.07273 -0.429826 -4.56232
119 1 10.41 -9.96949 -1.99595 -4.61361
120 1 10.4057 -7.37036 0.868062 -4.57861
121 1 12.8093 -10.071 1.20286 -4.30343
122 1 13.0627 -7.59304 -2.21193 -4.56918
123 1 11.7778 -8.75579 -0.543565 -4.53712
124 1 11.6624 -6.33448 2.58068 -4.55848
125 1 14.4633 -8.80195 2.38807 -4.65806
126 1 14.1748 -6.28925 -0.622429 -4.55916
127 1 15.3828 -10.4895 -1.93325 -4.3611
128 1 15.6189 -7.67361 0.617225 -4.58151
129 1 17.7496 -7.93574 -2.28316 -3.36506
130 1 16.8543 -9.33372 -0.583471 -4.5753
131 1 16.7499 -5.68852 1.45258 -4.20792
132 1 18.5835 -5.70109 56.5859 -3.9011
133 1 -18.3452 -5.05159 0.850103 -4.50338
134 1 -18.0217 -2.58591 -1.86535 -4.94125
135 1 -19.3395 -3.08608 0.0305956 -4.32069
136 1 -18.5184 -1.86229 1.74806 -3.93271
137 1 -16.4888 -4.21185 1.94968 -4.55048
138 1 -16.8599 -1.0036 -0.655331 -4.46644
139 1 -15.6429 -5.07146 -2.23723 -4.62522
140 1 -15.4857 -2.52542 0.676977 -4.47567
141 1 -13.0186 -5.1271 0.700953 -4.59328
142 1 -13.0022 -2.45504 -2.21864 -4.57877
143 1 -14.2246 -3.86282 -0.793558 -4.61194
144 1 -14.3199 -1.25258 2.21872 -4.58033
145 1 -11.5756 -3.75808 1.9 -4.54133
146 1 -11.8411 -1.17993 -0.706806 -4.57894
147 1 -10.2483 -5.04558 56.5546 -4.57235
148 1 -10.3285 -2.50619 0.451658 -4.56697
149 1 -7.63769 -4.80699 0.771357 -4.52457
150 1 -7.81832 -2.26332 56.3179 -4.55328
151 1 -8.77001 -3.74574 -0.962787 -4.53303
152 1 -9.03631 -1.27084 2.04123 -4.58071
153 1 -6.22313 -3.67345 2.25621 -4.57991
154 1 -6.55289 -1.22361 -0.849096 -4.54476
155 1 -5.36047 -4.88068 56.4592 -4.57249
156 1 -5.06006 -2.36629 0.688069 -4.59739
157 1 -2.49365 -4.83796 0.620868 -4.52764
158 1 -2.49841 -2.42076 -2.17732 -4.58329
159 1 -3.92377 -3.80015 -0.814017 -4.55389
160 1 -3.65033 -1.0174 2.03988 -4.53284
161 1 -1.16358 -3.65703 2.1512 -4.54266
162 1 -1.09382 -1.06455 -0.971134 -4.52308
163 1 -0.0123585 -4.93425 -2.36194 -4.55822
164 1 0.0560975 -2.1686 0.788688 -4.56669
165 1 2.51739 -4.81433 0.811394 -4.5568
166 1 2.48422 -2.24745 -2.05228 -4.5795
167 1 1.12746 -3.60443 -0.685186 -4.6005
168 1 1.52582 -1.03904 2.25125 -4.58128
169 1 3.97283 -3.73608 2.2536 -4.53542
170 1 3.8417 -0.959632 -0.571907 -4.52903
171 1 5.17547 -5.04241 -2.14291 -4.54493
172 1 5.15306 -2.26988 0.78843 -4.57871
173 1 7.63118 -4.72918 1.02398 -4.55062
174 1 7.60279 -1.99664 -1.92667 -4.57948
175 1 6.43353 -3.64154 -0.605054 -4.54095
176 1 6.50155 -1.16889 2.2188 -4.47811
177 1 8.92451 -3.58134 2.60678 -4.54877
178 1 9.18967 -0.886605 -0.604495 -4.51356
179 1 10.1892 -4.84097 -2.02024 -4.57439
180 1 10.2913 -2.1772 1.06042 -4.51683
181 1 12.8818 -5.03312 1.00609 -4.55034
182 1 12.7231 -2.49218 -2.00209 -4.52789
183 1 11.4021 -3.61708 -0.332067 -4.5427
184 1 11.7941 -1.20627 2.58471 -4.55876
185 1 14.3392 -3.83622 2.52838 -4.31569
186 1 13.8214 -1.16763 -0.494678 -4.50522
187 1 15.4413 -5.13583 56.4959 -4.48728
188 1 15.2191 -2.46389 0.740861 -4.47249
189 1 18.2242 -4.64675 -0.119364 -4.62728
190 1 17.8826 -2.44726 56.2511 -4.70829
191 1 16.4593 -3.51986 -1.05174 -4.63749
192 1 16.764 -1.19459 2.12884 -4.61065
193 1 19.3366 -2.63889 0.685893 -3.74764
194 1 18.9941 -0.972417 -0.980666 -4.03539
195 1 -19.9647 -1.23488 -1.41484 -4.38391
196 1 -19.1191 0.440534 1.9283 -4.46531
197 1 -18.3238 2.43837 -1.9036 -4.33378
198 1 -18.6403 0.439697 -0.536022 -4.37097
199 1 -18.9461 5.0899 3.17978 -4.25463
200 1 -17.0937 1.45021 2.48153 -4.56676
201 1 -17.0439 3.75023 -0.325936 -4.39833
202 1 -15.6795 0.252956 56.5533 -4.57604
203 1 -15.5414 2.45803 1.06137 -4.50414
204 1 -13.0993 0.118533 0.772052 -4.58033
205 1 -13.0444 2.6597 -2.18809 -4.57159
206 1 -14.3176 1.45474 -0.69122 -4.50767
207 1 -14.2206 3.96987 2.25351 -4.55858
208 1 -11.5854 1.36478 2.20877 -4.61198
209 1 -11.8125 4.08969 -0.707703 -4.55103
210 1 -10.4942 0.130515 56.6624 -4.58892
211 1 -10.5065 2.84404 0.750278 -4.55323
212 1 -7.73994 0.222964 0.698807 -4.59397
213 1 -7.62842 2.64164 56.4605 -4.59014
214 1 -9.10099 1.5205 -0.811583 -4.57174
215 1 -8.80151 3.94371 2.05856 -4.56048
216 1 -6.41497 1.36245 2.33318 -4.5315
217 1 -6.26431 3.93294 -0.815698 -4.57202
218 1 -5.12774 0.113379 -2.18847 -4.60625
219 1 -5.2673 2.61617 0.757963 -4.50958
220 1 -2.34703 0.19235 0.51458 -4.60763
221 1 -2.42085 2.8947 56.6502 -4.57598
222 1 -3.82272 1.5865 -0.792615 -4.60514
223 1 -3.83512 3.97681 2.19964 -4.59758
224 1 -1.19919 1.49658 2.08784 -4.56212
225 1 -1.15419 4.29365 -0.802893 -4.55925
226 1 0.088047 0.473242 56.6135 -4.58446
227 1 0.0520515 2.96478 0.644577 -4.58826
228 1 2.67561 0.437382 0.84403 -4.5863
229 1 2.56122 3.08705 56.4241 -4.55818
230 1 1.41896 1.7162 -0.763484 -4.56659
231 1 1.44697 4.13556 2.12395 -4.57773
232 1 4.01014 1.68193 2.32835 -4.59566
233 1 3.82403 4.31749 -0.905208 -4.5489
234 1 5.10098 0.366292 -2.21749 -4.55195
235 1 5.18461 2.94197 0.64514 -4.56371
236 1 7.69222 0.355456 0.790737 -4.59696
237 1 7.7588 2.90692 -2.19547 -4.56274
238 1 6.53038 1.60373 -0.764189 -4.5523
239 1 6.5385 4.30278 2.02473 -4.57165
240 1 9.03129 1.62964 2.29435 -4.58837
241 1 9.16759 4.21492 -0.739528 -4.571
242 1 10.3836 0.346711 -2.05302 -4.55954
243 1 10.3798 2.94042 0.769672 -4.60684
244 1 12.8464 0.246847 1.01424 -4.52968
245 1 12.8122 3.10315 -2.08914 -4.62761
246 1 11.6917 1.59205 -0.561449 -4.55842
247 1 11.8841 4.20278 2.08699 -4.56655
248 1 14.28 1.57762 2.43191 -4.58773
249 1 14.4508 4.22895 -0.903684 -4.47427
250 1 15.0895 0.159182 -2.04973 -4.52963
251 1 15.4326 2.78457 0.704863 -4.39604
252 1 18.2605 0.166532 0.953152 -4.49992
253 1 17.3432 2.65655 -1.9675 -4.46426
254 1 16.5915 1.10268 -0.457254 -4.47756
255 1 17.0423 4.05323 1.9035 -5.01768
256 1 19.9169 1.06158 2.55734 -4.26662
257 1 19.466 3.58075 -2.39066 -3.99197
258 1 19.1459 1.30944 56.007 -4.04971
259 1 -18.242 5.19549 1.03004 -3.55787
260 1 -17.7522 7.93083 55.4984 -4.54119
261 1 -18.2692 6.32146 -1.7128 -3.93069
262 1 -16.9836 6.36597 2.64557 -5.07202
263 1 -16.9448 8.9461 -1.19193 -3.67279
264 1 -16.2065 5.13171 -2.2063 -5.29149
265 1 -16.0654 7.7018 0.723763 -4.34325
266 1 -13.1159 5.3805 0.678589 -4.51878
267 1 -13.1723 7.49553 -2.2603 -4.54622
268 1 -14.7203 6.35655 -0.714088 -4.29702
269 1 -14.6113 9.01415 2.06798 -4.41668
270 1 -11.7747 6.53465 2.12614 -4.52731
271 1 -11.771 8.88678 -0.898479 -4.50128
272 1 -10.2488 5.08454 56.5874 -4.60793
273 1 -10.4234 7.50986 0.453058 -4.58122
274 1 -7.61521 5.29262 0.531041 -4.57483
275 1 -7.66492 8.09901 56.4876 -4.57672
276 1 -8.88064 6.52649 -0.972271 -4.57187
277 1 -9.17934 8.98482 1.76193 -4.57885
278 1 -6.28726 6.58968 1.85914 -4.55832
279 1 -6.27788 9.39975 -0.860919 -4.6098
280 1 -5.03518 5.38204 56.5022 -4.5749
281 1 -5.01675 8.05767 0.599972 -4.58839
282 1 -2.47401 5.40449 0.781965 -4.59834
283 1 -2.52779 8.1004 56.4782 -4.56909
284 1 -3.73792 6.72343 -0.794768 -4.5733
285 1 -3.89698 9.32471 2.33431 -4.51988
286 1 -1.1848 6.78905 2.17917 -4.51248
287 1 -1.36161 9.55096 -0.845018 -4.52353
288 1 -0.120267 5.79292 56.51 -4.50657
289 1 0.0588973 8.31191 0.633348 -4.57549
290 1 2.69735 5.62302 0.748001 -4.55144
291 1 2.70173 8.04001 56.5813 -4.57653
292 1 1.26426 6.79179 -0.750735 -4.55383
293 1 1.24482 9.62136 2.1746 -4.54815
294 1 3.94716 6.90334 2.27316 -4.58143
295 1 4.06636 9.28599 -0.762108 -4.52776
296 1 5.22679 5.52382 -2.35233 -4.584
297 1 5.36643 8.19297 0.853935 -4.54645
298 1 7.88062 5.65192 0.701386 -4.61348
299 1 7.93875 8.13003 -2.21345 -4.59579
300 1 6.524 6.85463 -0.825849 -4.55679
301 1 6.7251 9.39682 2.30121 -4.51821
302 1 9.31935 6.95635 2.09186 -4.52885
303 1 9.22026 9.4819 -0.826291 -4.58656
304 1 10.3822 5.48604 56.4624 -4.60129
305 1 10.5755 8.16143 0.606696 -4.32748
306 1 13.0982 5.58842 0.503527 -4.57139
307 1 12.8358 7.87193 55.8545 -4.31327
308 1 11.7605 6.84017 -1.04186 -4.49723
309 1 11.9579 9.83927 1.95055 -4.81974
310 1 14.4111 6.95781 1.93848 -4.57985
311 1 14.2621 9.06572 -1.51961 -4.37046
312 1 15.2403 5.41248 55.8384 -4.31386
313 1 16.1043 8.13974 0.888726 -4.57248
314 1 18.6913 4.61658 0.261778 -3.81326
315 1 17.2447 6.52919 56.0236 -4.68311
316 1 17.3578 6.40297 -0.479052 -3.64337
317 1 17.2099 8.9076 2.74851 -3.69544
318 1 18.9974 5.29919 2.48601 -4.20288
319 1 -15.7385 12.8042 3.3588 -4.22533
320 1 -15.3259 10.5715 -1.99117 -4.62755
321 1 -15.1031 13.4864 1.154 -4.16567
322 1 -12.8149 9.97091 0.742314 -4.45009
323 1 -13.1085 12.825 -1.91676 -4.63574
324 1 -14.1371 11.7324 -0.109635 -4.45663
325 1 -13.492 13.8395 2.96 -4.78391
326 1 -11.6625 11.3491 2.3026 -4.44106
327 1 -12.0323 14.4557 -0.482795 -4.55397
328 1 -10.4522 10.3765 -2.34405 -4.58555
329 1 -10.7133 12.7996 0.686447 -4.52965
330 1 -7.77609 10.4887 0.582992 -4.59624
331 1 -7.94726 13.1412 56.3571 -4.55104
332 1 -9.09339 11.7495 -0.905618 -4.53215
333 1 -9.26218 14.1268 1.84309 -4.47768
334 1 -6.54692 11.6149 2.1677 -4.54258
335 1 -6.5324 14.3581 -1.07359 -4.48533
336 1 -5.00071 10.7897 56.5022 -4.57826
337 1 -5.59766 13.2079 0.633601 -4.48575
338 1 -2.68857 10.5777 0.832223 -4.53451
339 1 -2.75502 13.1213 -2.40234 -4.57781
340 1 -3.97711 12.1042 -0.603596 -4.53832
341 1 -4.05421 14.4607 1.93322 -4.46731
342 1 -1.45699 12.0835 2.26334 -4.5819
343 1 -1.47726 14.4812 -0.991065 -4.55296
344 1 0.0876921 10.6337 56.3712 -4.54315
345 1 -0.109917 13.2416 0.611563 -4.54544
346 1 2.72177 10.7354 0.618985 -4.54485
347 1 2.68907 13.2532 56.5437 -4.58625
348 1 1.29492 11.918 -0.871908 -4.5699
349 1 1.13351 14.5135 2.1455 -4.54875
350 1 3.88007 11.8469 2.264 -4.51899
351 1 3.90331 14.6061 -0.693472 -4.49311
352 1 5.1599 10.6116 56.387 -4.58855
353 1 5.2172 13.3258 0.765287 -4.45917
354 1 7.64889 10.5945 0.502291 -4.58183
355 1 7.55862 13.4154 56.4713 -4.39469
356 1 6.32183 12.0585 -0.894709 -4.54681
357 1 6.44803 14.6592 2.16815 -4.57494
358 1 9.00718 12.0687 1.81557 -4.37361
359 1 9.13405 14.8726 -1.23884 -4.77192
360 1 10.2886 10.8553 56.3226 -4.38153
361 1 10.335 13.5172 0.364972 -4.63015
362 1 12.6725 10.3696 -0.213524 -4.38397
363 1 12.897 12.762 55.4877 -4.27636
364 1 11.6352 12.2566 -1.25292 -4.81473
365 1 11.3511 14.6882 2.0958 -4.17168
366 1 14.0149 11.2648 2.50199 -4.27804
367 1 13.6217 13.616 -1.25903 -4.28736
368 1 15.4308 10.3364 55.8906 -4.14309
369 1 14.4581 11.8572 0.283363 -4.65676
370 1 16.008 10.2131 -0.479898 -4.28145
371 1 -13.5587 15.2672 1.09249 -4.17445
372 1 -12.6451 16.1224 3.12687 -4.27573
373 1 -9.87013 16.5221 55.9919 -4.37317
374 1 -8.33162 15.2845 0.0839359 -4.5077
375 1 -8.43786 18.3168 56.7416 -4.13361
376 1 -9.6308 17.0621 -0.424282 -4.36279
377 1 -6.77115 16.1071 1.59563 -4.73752
378 1 -8.07057 18.676 0.316849 -4.256
379 1 -5.5393 15.9045 56.3279 -4.57583
380 1 -5.92432 17.7615 0.214028 -4.68462
381 1 -3.02759 15.6224 0.225219 -4.49558
382 1 -2.78573 18.646 56.3043 -4.60605
383 1 -4.11086 17.2093 -1.16855 -4.47346
384 1 -5.01762 19.0596 1.99863 -3.69309
385 1 -1.93227 16.8851 1.93707 -4.57795
386 1 -1.02907 19.4558 -1.13375 -3.67346
387 1 -0.0111294 15.6099 56.529 -4.52446
388 1 -0.303254 18.2258 0.840537 -4.67132
389 1 2.37512 15.781 0.665034 -4.59382
390 1 2.55418 18.5218 -1.82557 -4.40528
391 1 1.0213 17.1047 -0.840056 -4.63214
392 1 1.06927 19.5853 2.10862 -4.52701
393 1 3.41556 16.9531 2.39308 -4.68334
394 1 2.64065 19.9533 0.273627 -4.27324
395 1 4.71188 16.1089 56.3883 -4.47647
396 1 4.37631 18.598 1.05772 -4.27716
397 1 7.61772 16.4739 -0.573577 -4.43252
398 1 8.9962 18.0296 -1.72869 -4.33971
399 1 5.86386 17.8056 -1.23932 -4.15233
400 1 5.33898 19.6548 2.96746 -3.64529
401 1 8.02784 16.3336 1.80552 -4.54082
402 1 9.97603 15.4027 55.49 -4.26015
403 1 12.1484 15.1463 -0.0589786 -4.21795
404 1 10.8988 16.4714 -1.55785 -4.25263
405 1 1.12355 20.4958 -1.68275 -4.32272
406 1 -12.3262 -16.1253 3.79729 -4.17567
407 1 -7.51637 -18.2757 3.13309 -3.43609
408 1 -8.95285 -16.995 7.72622 -3.65561
409 1 -6.22519 -19.1164 8.67237 -4.13209
410 1 -6.47869 -17.0889 5.11792 -4.49736
411 1 -5.13181 -18.0666 6.91524 -4.63585
412 1 -2.38303 -18.4531 3.78063 -4.495
413 1 -3.31651 -19.1094 5.87316 -3.59096
414 1 -3.64049 -16.6627 8.00583 -4.4915
415 1 -1.44221 -19.107 7.35005 -4.17256
416 1 -1.01409 -16.9287 5.03698 -4.64728
417 1 1.42921 -20.6455 1.76335 -4.08216
418 1 0.432547 -18.4191 6.00246 -4.34507
419 1 2.91385 -17.9573 2.91711 -4.57747
420 1 1.22546 -19.3443 3.84693 -4.31472
421 1 1.17872 -16.7171 7.5139 -4.47317
422 1 4.54582 -19.2147 8.39646 -4.47596
423 1 3.85918 -17.0557 4.94119 -4.47876
424 1 5.45599 -18.0119 6.42486 -4.52293
425 1 8.25339 -17.7042 3.18971 -4.35769
426 1 7.46326 -18.5479 5.17217 -3.43113
427 1 6.50278 -16.4072 7.86777 -4.44044
428 1 9.29528 -16.932 5.21672 -4.4326
429 1 13.0814 -15.2956 9.05537 -4.48039
430 1 -17.8181 -10.014 5.53473 -4.29375
431 1 -16.1937 -11.8521 5.52882 -4.101
432 1 -13.4499 -14.2732 4.68024 -4.49818
433 1 -12.1543 -12.8818 3.2496 -4.42584
434 1 -15.2996 -13.179 3.61526 -4.27653
435 1 -14.4436 -11.5698 7.3745 -4.45763
436 1 -12.1186 -14.2584 6.89 -4.37139
437 1 -11.2804 -11.437 4.91731 -4.55604
438 1 -9.99908 -16.1311 3.25795 -4.12005
439 1 -10.2838 -12.9793 6.22009 -4.60834
440 1 -7.74156 -15.5401 6.24896 -4.66763
441 1 -7.88737 -12.9013 3.46423 -4.5813
442 1 -9.19759 -14.4001 4.64049 -4.50034
443 1 -9.34241 -11.5098 7.86058 -4.55179
444 1 -6.60344 -14.217 7.90316 -4.58553
445 1 -6.6809 -11.5767 5.00733 -4.56659
446 1 -5.08856 -15.7654 3.77107 -4.58997
447 1 -5.30616 -12.8565 6.52802 -4.61649
448 1 -2.27665 -15.6136 6.50256 -4.53211
449 1 -2.64583 -12.8874 3.75439 -4.56943
450 1 -3.85613 -14.2488 5.33189 -4.58285
451 1 -3.89203 -11.6757 7.99464 -4.58404
452 1 -1.31827 -13.8831 7.84037 -4.61218
453 1 -1.41025 -11.4057 5.12741 -4.57621
454 1 0.120352 -15.359 3.6538 -4.56115
455 1 0.0925554 -12.4706 6.55648 -4.57313
456 1 2.71251 -15.5051 6.25469 -4.58394
457 1 2.46244 -12.5922 3.4479 -4.57686
458 1 1.32014 -13.9573 5.00075 -4.56507
459 1 1.37697 -11.2614 8.04905 -4.52335
460 1 3.74212 -14.0583 7.86653 -4.53827
461 1 3.82152 -11.6198 5.02591 -4.56425
462 1 5.15199 -15.4901 3.73459 -4.55383
463 1 5.22645 -12.6863 6.60244 -4.61783
464 1 8.04205 -15.2937 6.55789 -4.52878
465 1 7.86823 -12.6928 4.00959 -4.59217
466 1 6.49343 -14.1963 5.24506 -4.58713
467 1 6.65071 -11.447 8.11424 -4.58857
468 1 9.29775 -14.0364 8.05186 -4.5532
469 1 9.25912 -11.3646 5.29795 -4.5569
470 1 10.3271 -15.3278 3.77577 -4.60385
471 1 10.7677 -12.8651 6.50552 -4.60333
472 1 13.621 -15.0365 6.76407 -3.642
473 1 13.3664 -13.1407 3.46403 -4.46286
474 1 12.0394 -14.2087 5.08558 -4.55799
475 1 12.2064 -11.609 7.95689 -4.50779
476 1 13.6301 -13.0708 9.14712 -4.67531
477 1 14.7483 -11.8505 5.0436 -4.45851
478 1 15.4077 -13.365 6.75087 -3.80456
479 1 16.0285 -12.917 8.95411 -4.46912
480 1 -18.3204 -7.6845 4.55853 -4.60248
481 1 -19.314 -5.7435 8.65813 -4.17091
482 1 -16.834 -9.42522 7.6418 -4.63436
483 1 -16.7665 -6.39904 5.56774 -4.58358
484 1 -15.9867 -9.93399 4.02747 -4.55603
485 1 -15.4087 -7.78162 6.73179 -4.65035
486 1 -12.7182 -10.3865 6.37895 -4.55164
487 1 -12.9022 -7.65554 3.57711 -4.56557
488 1 -14.135 -8.97019 5.15158 -4.64343
489 1 -14.1303 -6.48452 8.16945 -4.57618
490 1 -11.7029 -9.0721 8.11671 -4.50239
491 1 -11.5703 -6.13754 4.91971 -4.49117
492 1 -9.91895 -10.1584 3.46022 -4.54809
493 1 -10.476 -7.58397 6.70081 -4.49488
494 1 -7.87272 -10.1697 6.47284 -4.61053
495 1 -7.73142 -7.46275 3.77422 -4.5319
496 1 -9.06419 -8.67679 5.18181 -4.54178
497 1 -9.08705 -6.30407 8.10704 -4.6056
498 1 -6.4944 -8.90757 7.96713 -4.60099
499 1 -6.37178 -6.25992 5.24987 -4.60327
500 1 -5.24767 -10.235 3.63437 -4.6246
501 1 -5.14739 -7.62738 6.65919 -4.55484
502 1 -2.64037 -10.25 6.62128 -4.5375
503 1 -2.68957 -7.46191 3.64298 -4.58792
504 1 -3.93572 -8.9768 5.05466 -4.55709
505 1 -3.96742 -6.47548 8.2473 -4.56032
506 1 -1.36012 -9.01494 8.21674 -4.56074
507 1 -1.27577 -6.28006 5.18529 -4.56568
508 1 -0.0217724 -10.2113 3.67732 -4.53142
509 1 -0.139887 -7.60978 6.6835 -4.56032
510 1 2.59951 -10.0557 6.44927 -4.56695
511 1 2.4305 -7.31435 3.89088 -4.55291
512 1 1.16221 -8.7871 5.16535 -4.61842
513 1 1.47168 -6.42213 7.96702 -4.61547
514 1 4.07617 -8.92004 7.82083 -4.58956
515 1 4.0237 -6.24164 5.24308 -4.61462
516 1 5.17237 -10.191 3.7627 -4.61464
517 1 5.4576 -7.43686 6.59346 -4.567
518 1 7.97707 -10.1437 6.76129 -4.55641
519 1 7.84668 -7.72904 3.76175 -4.58418
520 1 6.60608 -9.01659 5.21678 -4.58146
521 1 6.56238 -6.21026 8.36293 -4.5939
522 1 9.42269 -8.95331 8.28117 -4.59902
523 1 9.02588 -6.44318 5.35831 -4.57491
524 1 10.4995 -10.1943 3.79057 -4.56704
525 1 10.5543 -7.68655 6.61996 -4.57193
526 1 13.4426 -10.3147 6.48987 -4.5819
527 1 13.287 -7.46463 3.99139 -4.55007
528 1 11.9847 -9.00547 5.23013 -4.61395
529 1 11.66 -6.44059 8.30466 -4.58895
530 1 14.6167 -8.97121 7.92079 -4.48416
531 1 14.4556 -6.07148 5.53568 -4.35181
532 1 15.9016 -10.3505 3.35236 -4.43752
533 1 15.9511 -7.60706 6.56499 -4.70044
534 1 18.0076 -6.8001 3.2018 -4.46656
535 1 16.7038 -8.3926 4.39575 -3.75548
536 1 17.1963 -6.51242 8.28167 -4.14825
537 1 18.9158 -5.29877 4.83965 -3.73702
538 1 -18.3147 -4.8725 6.6719 -4.55634
539 1 -17.6126 -2.91294 3.54074 -4.44848
540 1 -19.3523 -4.02932 4.62041 -4.43784
541 1 -19.7913 -1.82225 5.75351 -4.01292
542 1 -16.5249 -3.8011 7.65814 -4.56069
543 1 -17.5373 -1.20197 5.12564 -5.28251
544 1 -15.6595 -5.49202 3.69356 -4.48952
545 1 -15.6767 -2.34309 6.14899 -4.25197
546 1 -13.1423 -5.13367 6.44214 -4.53675
547 1 -12.9509 -2.5994 3.50844 -4.59225
548 1 -14.433 -3.86325 4.82888 -4.60572
549 1 -14.2029 -1.35709 7.67202 -4.45082
550 1 -11.727 -3.86077 7.95186 -4.55105
551 1 -11.8339 -1.17098 5.01199 -4.56704
552 1 -10.2448 -4.9197 3.30155 -4.55096
553 1 -10.4337 -2.47841 6.35681 -4.54572
554 1 -7.91926 -4.96118 6.49013 -4.56355
555 1 -7.59304 -2.23487 3.60342 -4.61509
556 1 -9.00921 -3.66889 4.87886 -4.57809
557 1 -9.12947 -1.44585 8.13386 -4.53466
558 1 -6.46284 -3.78753 7.98719 -4.53956
559 1 -6.32467 -0.993014 5.17826 -4.55825
560 1 -4.92632 -4.93945 3.87471 -4.55611
561 1 -5.02207 -2.41484 6.6021 -4.56585
562 1 -2.67931 -5.22046 6.76159 -4.57519
563 1 -2.31584 -2.34516 3.61709 -4.5371
564 1 -3.55572 -3.62472 5.26617 -4.55939
565 1 -3.83076 -1.21251 8.33231 -4.58017
566 1 -1.29576 -3.85637 8.06664 -4.58095
567 1 -1.10143 -0.961247 5.16378 -4.5642
568 1 0.0059637 -4.86447 3.78418 -4.53493
569 1 0.0192543 -2.40553 6.64821 -4.58982
570 1 2.70959 -4.88563 6.63221 -4.62229
571 1 2.80372 -2.37694 3.69464 -4.54157
572 1 1.42449 -3.66341 5.13064 -4.58355
573 1 1.38028 -1.04689 8.05884 -4.61671
574 1 4.05611 -3.48012 7.90391 -4.54961
575 1 3.91469 -0.792416 5.28901 -4.50633
576 1 5.3528 -4.7913 3.84099 -4.57784
577 1 5.35327 -2.17445 6.56206 -4.58299
578 1 8.02419 -5.02482 6.95322 -4.57403
579 1 7.67255 -2.20487 4.02473 -4.55391
580 1 6.70062 -3.67928 5.46872 -4.53582
581 1 6.71407 -0.981147 8.1438 -4.59161
582 1 9.33688 -3.64208 8.37071 -4.62476
583 1 9.26007 -1.09841 5.27789 -4.57308
584 1 10.1721 -4.98381 4.02607 -4.54587
585 1 10.5114 -2.39265 6.82293 -4.59168
586 1 13.1888 -5.02871 7.0793 -4.50672
587 1 12.9845 -2.7549 4.01543 -4.56269
588 1 11.6837 -4.02868 5.57434 -4.59717
589 1 11.9566 -1.15226 8.26108 -4.6182
590 1 14.6954 -3.63962 8.25648 -4.56385
591 1 14.2225 -1.30789 5.42301 -4.59522
592 1 16.0715 -5.18321 3.8156 -4.68813
593 1 15.8954 -2.44372 6.61745 -4.40259
594 1 18.036 -4.87418 6.87876 -3.58615
595 1 18.5326 -2.42457 3.03407 -4.25259
596 1 17.3558 -3.4744 4.98053 -4.87109
597 1 17.0463 -0.871154 7.81407 -4.54506
598 1 18.9768 -1.9432 8.70793 -4.48984
599 1 19.5143 -0.43688 4.35091 -4.29732
600 1 -19.4536 -0.0392275 4.21591 -4.05105
601 1 -17.6734 0.507353 6.76819 -4.45437
602 1 -18.109 3.01871 3.95756 -4.62849
603 1 -19.2534 1.84982 5.71086 -4.60991
604 1 -19.2349 3.56893 7.4249 -3.71533
605 1 -16.573 1.86023 8.48117 -4.5418
606 1 -17.0026 4.33564 5.54509 -4.62689
607 1 -15.789 -0.0994539 3.81734 -4.30491
608 1 -15.352 2.90662 6.65514 -4.47027
609 1 -12.9649 0.162222 6.54862 -4.54054
610 1 -12.9022 2.63534 3.67484 -4.64696
611 1 -14.3266 1.41573 5.08594 -4.54996
612 1 -14.0588 4.25382 8.03907 -4.57974
613 1 -11.7352 1.34656 8.04635 -4.55165
614 1 -11.4178 3.93636 5.00138 -4.56749
615 1 -10.387 -0.102238 3.58739 -4.5639
616 1 -10.2249 2.65607 6.72498 -4.57574
617 1 -7.92933 -0.0438004 6.58789 -4.56194
618 1 -7.75406 2.83494 3.81087 -4.50108
619 1 -9.11821 1.29944 5.10801 -4.56301
620 1 -8.8386 3.94837 8.09824 -4.57311
621 1 -6.45941 1.2596 7.98766 -4.54447
622 1 -6.29638 4.0682 5.05444 -4.5919
623 1 -4.92938 0.131243 3.63094 -4.5509
624 1 -5.11407 2.69398 6.55056 -4.56647
625 1 -2.62369 0.106999 6.73413 -4.5256
626 1 -2.50826 2.70465 3.63647 -4.576
627 1 -3.70181 1.43742 5.21043 -4.56503
628 1 -3.74322 4.00261 8.08543 -4.51779
629 1 -1.27603 1.44028 8.17724 -4.56677
630 1 -1.32641 4.15077 5.14287 -4.58832
631 1 0.23867 0.274718 3.58845 -4.56411
632 1 -0.148011 2.71332 6.50954 -4.59455
633 1 2.66515 0.4795 6.81438 -4.55136
634 1 2.77356 3.04348 3.77995 -4.57485
635 1 1.47583 1.60089 5.07993 -4.56796
636 1 1.33508 4.07785 7.84116 -4.57822
637 1 4.22828 1.63874 8.07994 -4.5494
638 1 4.3483 4.23487 5.08829 -4.5637
639 1 5.15179 0.151515 3.61041 -4.53495
640 1 5.46132 2.97695 6.68273 -4.54513
641 1 7.97459 0.381997 6.69828 -4.61225
642 1 7.62669 2.90643 3.6086 -4.57908
643 1 6.49331 1.47634 5.19618 -4.53781
644 1 6.73691 4.26797 8.20944 -4.54488
645 1 9.33251 1.52912 8.17872 -4.54569
646 1 9.03745 4.14152 4.9872 -4.47429
647 1 10.3253 0.333318 3.77692 -4.57879
648 1 10.3689 3.08436 6.76258 -4.54141
649 1 12.874 0.29035 6.64903 -4.56218
650 1 12.9249 3.02014 3.82651 -4.58588
651 1 11.5543 1.75963 5.29593 -4.5766
652 1 11.9427 4.38462 8.01196 -4.5665
653 1 14.2362 1.65341 8.04968 -4.60159
654 1 14.4247 4.44477 5.0128 -4.57375
655 1 15.4754 0.00958886 3.76387 -4.57183
656 1 15.4925 3.01494 6.52149 -4.52961
657 1 18.0067 0.218644 6.00262 -4.67013
658 1 18.0943 2.33575 3.28782 -4.54536
659 1 16.5837 1.71967 4.96498 -4.58
660 1 17.0926 4.16495 7.80375 -4.55085
661 1 19.4671 1.66272 7.18792 -4.33291
662 1 19.658 3.81881 4.31922 -4.49789
663 1 20.7984 1.67593 4.8587 -3.97012
664 1 -18.817 5.89686 7.7178 -4.43633
665 1 -17.7278 7.95178 4.45067 -3.39886
666 1 -18.6832 5.99796 5.38658 -4.3645
667 1 -16.6749 6.7737 8.12177 -4.69206
668 1 -16.5409 9.73101 5.66905 -4.59101
669 1 -15.4358 5.00471 3.91489 -4.39451
670 1 -15.185 8.07787 6.75584 -4.56848
671 1 -12.725 5.36243 6.44956 -4.578
672 1 -13.0985 7.92598 3.63285 -4.52922
673 1 -14.2633 6.52171 5.17406 -4.57956
674 1 -13.7546 9.05091 8.28805 -4.62798
675 1 -11.2756 6.45945 7.89361 -4.47999
676 1 -11.3579 8.926 5.01428 -4.55376
677 1 -10.2937 5.21975 3.42015 -4.60661
678 1 -9.89407 7.7398 6.44238 -4.5346
679 1 -7.6336 5.2582 6.5718 -4.5314
680 1 -7.63207 7.86413 3.20144 -4.48822
681 1 -8.80619 6.46846 4.79721 -4.52084
682 1 -8.82462 9.10155 7.92426 -4.4322
683 1 -6.19008 6.40735 8.08261 -4.55412
684 1 -6.5712 9.09288 5.14101 -4.48071
685 1 -4.98059 5.47877 3.63984 -4.53792
686 1 -5.04671 7.95272 6.58808 -4.53949
687 1 -2.5759 5.48657 6.59613 -4.56161
688 1 -2.42118 8.06592 3.52871 -4.49792
689 1 -3.72021 6.80142 5.05575 -4.56788
690 1 -3.71661 9.12249 8.25834 -4.57321
691 1 -1.14324 6.75367 7.99379 -4.60457
692 1 -1.26251 9.15424 5.19237 -4.54439
693 1 0.0863966 5.27678 3.62714 -4.53987
694 1 0.221588 8.0156 6.58592 -4.56479
695 1 2.79417 5.33978 6.49663 -4.57475
696 1 2.46615 8.28882 3.5955 -4.54203
697 1 1.43923 6.73547 5.15145 -4.53594
698 1 1.49871 9.26025 8.14161 -4.58946
699 1 4.15732 6.63702 8.10416 -4.52397
700 1 4.04828 9.39306 5.14742 -4.55634
701 1 5.45205 5.70639 3.6939 -4.5303
702 1 5.40934 7.98837 6.67061 -4.55942
703 1 8.00842 5.49456 6.79153 -4.50409
704 1 8.06225 8.17219 3.79063 -4.52868
705 1 6.77362 6.82219 5.21075 -4.5609
706 1 6.70321 9.38913 8.14334 -4.60509
707 1 9.33682 6.96938 8.10612 -4.57551
708 1 9.38775 9.5665 5.29178 -4.50586
709 1 10.5082 5.44364 3.6255 -4.57213
710 1 10.7622 8.16673 6.73399 -4.35923
711 1 13.3151 5.75285 6.54333 -4.5388
712 1 13.0118 8.12925 3.41072 -4.37627
713 1 11.8083 6.82453 5.0219 -4.52395
714 1 12.1219 9.63982 8.17099 -4.87928
715 1 14.6441 6.89774 8.09306 -4.38798
716 1 14.5805 8.94136 4.96323 -4.43357
717 1 15.7037 5.45999 3.32281 -4.35777
718 1 15.7906 8.84949 7.09344 -4.69
719 1 18.5803 5.07789 6.08839 -4.42821
720 1 18.6994 7.30353 3.58888 -4.50483
721 1 16.9316 6.57539 5.03137 -4.35782
722 1 17.3393 10.0393 8.4601 -4.13831
723 1 19.1606 7.33126 5.94496 -4.20321
724 1 -15.8054 11.5327 7.06017 -4.16465
725 1 -15.2657 10.6041 3.88922 -4.42056
726 1 -15.1866 13.4216 5.65092 -4.23989
727 1 -12.2405 10.2266 6.81319 -4.47353
728 1 -12.0187 12.6202 4.29275 -3.90767
729 1 -13.834 11.5443 5.57782 -5.02395
730 1 -13.4764 14.5506 6.83393 -4.08899
731 1 -11.0579 11.8673 7.98035 -4.6284
732 1 -11.3837 14.5531 5.61161 -5.40798
733 1 -10.0286 10.282 3.52616 -4.52465
734 1 -9.67859 13.0862 6.53631 -4.33651
735 1 -7.54455 10.522 6.68132 -4.54442
736 1 -7.85842 13.1157 3.47461 -4.59304
737 1 -8.79559 11.5586 4.98071 -4.44751
738 1 -8.32716 14.6257 7.75031 -4.59729
739 1 -6.1844 11.7763 8.14767 -4.52877
740 1 -6.26618 14.4203 4.73625 -4.55521
741 1 -5.30496 10.4635 3.816 -4.54845
742 1 -5.286 13.2536 6.65143 -4.50284
743 1 -2.49 10.4833 6.68227 -4.58732
744 1 -2.94725 13.2651 3.68752 -4.49282