ITEM: TIMESTEP
204000
ITEM: NUMBER OF ATOMS
4050
ITEM: BOX BOUNDS ss ss pp
-2.0614865919824609e+01 2.0824926131514154e+01
-2.0584292164919738e+01 2.0800430209182458e+01
-2.7698100000000005e+00 5.7079810000000002e+01
ITEM: ATOMS id type x y z c_peratom
1 1 -12.0641 -15.3602 -0.402107 -3.88046
2 1 -7.52233 -17.9321 -1.9883 -4.21373
3 1 -9.07392 -16.9711 1.29865 -4.61986
4 1 -7.32652 -18.5631 0.982988 -3.77797
5 1 -6.34837 -16.2877 -1.01397 -4.70943
6 1 -5.18364 -17.9811 0.165027 -4.68927
7 1 -2.84258 -17.9151 -2.70016 -4.68583
8 1 -4.76916 -18.9178 -1.91202 -4.00276
9 1 -3.65694 -17.0127 1.75238 -4.45447
10 1 -0.511647 -19.3874 2.04918 -4.45918
11 1 -1.6919 -16.5131 -1.23055 -4.47472
12 1 0.226318 -19.21 -1.21799 -4.50539
13 1 -0.549107 -17.6569 0.520802 -4.50627
14 1 2.76769 -17.9506 57.0757 -4.5356
15 1 2.40279 -19.9413 -1.64171 -4.15272
16 1 1.2911 -16.6029 1.34655 -4.62838
17 1 3.28123 -19.4424 0.695058 -4.07904
18 1 3.75759 -16.4732 -1.32166 -4.66486
19 1 5.16662 -17.8966 -0.039808 -4.47325
20 1 6.72309 -18.1526 -1.71852 -4.27022
21 1 9.71565 -17.5507 0.889635 -3.87318
22 1 6.46573 -16.526 1.52807 -4.55775
23 1 8.81135 -16.9223 -1.1657 -4.41447
24 1 11.5845 -16.226 1.41798 -3.71844
25 1 -14.9532 -12.756 -0.611484 -3.89996
26 1 -15.2805 -13.9191 1.4301 -4.50042
27 1 -14.0177 -15.8058 0.853881 -4.38208
28 1 -12.8738 -13.3352 56.7567 -4.51178
29 1 -14.0165 -14.7288 -1.42007 -4.51221
30 1 -14.3148 -11.7554 1.4156 -4.45094
31 1 -11.201 -14.2006 1.50751 -5.00058
32 1 -11.6807 -11.9632 -1.58461 -4.55337
33 1 -10.2912 -15.864 57.1894 -4.02396
34 1 -10.1324 -12.7903 -0.0360988 -4.32556
35 1 -7.88633 -15.1965 0.348475 -4.6237
36 1 -7.63416 -12.9483 57.1172 -4.52927
37 1 -9.08029 -14.2088 -1.47241 -4.6154
38 1 -8.88087 -11.5173 1.61664 -4.56267
39 1 -6.17543 -14.2118 1.66347 -4.5538
40 1 -6.56261 -11.5972 -1.11867 -4.58661
41 1 -5.0914 -15.2964 57.133 -4.53647
42 1 -4.98135 -12.8227 0.184568 -4.61017
43 1 -2.79515 -15.2594 0.400529 -4.50176
44 1 -2.43359 -12.8709 56.9113 -4.53077
45 1 -3.6597 -13.9802 -1.35866 -4.51351
46 1 -3.82781 -11.2359 1.5454 -4.56368
47 1 -1.33691 -13.8688 1.55038 -4.59815
48 1 -1.42229 -11.31 -1.42959 -4.61545
49 1 0.0885177 -15.7501 57.2179 -4.46847
50 1 -0.0385633 -12.6181 -0.0974826 -4.53602
51 1 2.55226 -15.0849 0.047551 -4.57807
52 1 2.53108 -12.7338 56.8664 -4.59229
53 1 1.21047 -13.9467 -1.45956 -4.58712
54 1 1.38737 -11.5452 1.52777 -4.51797
55 1 3.81076 -13.8384 1.64596 -4.53112
56 1 3.86979 -11.5597 -1.50083 -4.57104
57 1 5.06686 -14.9651 -2.56656 -4.63647
58 1 5.10347 -12.6781 0.114498 -4.52408
59 1 7.90409 -15.2532 0.19304 -4.61328
60 1 7.91386 -12.7195 -2.76919 -4.56392
61 1 6.70287 -13.9085 -1.18446 -4.48254
62 1 6.43803 -11.5241 1.74978 -4.58043
63 1 9.08697 -14.4431 2.07888 -4.48152
64 1 9.02892 -11.4237 -1.14159 -4.49221
65 1 10.4822 -15.3593 -2.39868 -4.44646
66 1 9.92219 -12.7546 0.723133 -4.46505
67 1 13.0387 -15.3319 -0.254486 -4.64924
68 1 12.7968 -12.4665 -1.98375 -4.28589
69 1 11.3135 -13.8806 -0.821961 -4.69866
70 1 11.4474 -11.5012 2.0984 -4.62421
71 1 14.4375 -13.5843 0.729629 -3.76827
72 1 14.3238 -11.3243 -0.527391 -5.39888
73 1 16.247 -12.8704 -0.755722 -4.03991
74 1 16.4993 -10.7389 0.469352 -4.0169
75 1 -17.8097 -7.48436 56.4582 -4.21972
76 1 -18.8972 -5.97372 3.01202 -3.99291
77 1 -16.6058 -8.87843 2.50654 -3.62602
78 1 -16.8978 -6.7648 -1.10218 -4.39855
79 1 -15.4573 -10.5134 -2.45692 -3.89738
80 1 -15.51 -7.93008 0.503242 -4.51435
81 1 -12.7337 -10.4881 0.015215 -4.50291
82 1 -13.0172 -7.68548 -2.79544 -4.525
83 1 -14.1644 -9.00121 -1.15046 -4.67979
84 1 -14.0487 -6.47535 1.77563 -4.51611
85 1 -11.6609 -9.1065 1.5642 -4.51048
86 1 -11.6354 -6.58709 -1.23566 -4.57094
87 1 -10.4404 -10.3672 -2.82277 -4.59318
88 1 -10.3188 -7.68362 0.316734 -4.59132
89 1 -7.62213 -9.99317 0.357809 -4.5861
90 1 -7.84591 -7.66452 57.192 -4.55166
91 1 -9.13622 -9.04603 -1.19896 -4.57796
92 1 -9.03251 -6.2901 1.76451 -4.57239
93 1 -6.32171 -8.52413 1.68904 -4.55397
94 1 -6.49308 -6.39546 -1.23514 -4.52983
95 1 -5.18345 -10.3818 57.2695 -4.56588
96 1 -4.99457 -7.49771 0.115385 -4.55264
97 1 -2.55585 -9.95134 0.148996 -4.54111
98 1 -2.62622 -7.42939 -2.82111 -4.51282
99 1 -3.79037 -8.7925 -1.40067 -4.55043
100 1 -3.70888 -6.17951 1.6431 -4.57943
101 1 -1.06738 -8.81126 1.60437 -4.58552
102 1 -1.23647 -6.37459 -1.26554 -4.56232
103 1 0.0482125 -10.0723 -2.7846 -4.58879
104 1 0.267261 -7.51925 0.160706 -4.58645
105 1 2.69462 -10.2681 0.0799134 -4.56712
106 1 2.55216 -7.41163 -2.86102 -4.5603
107 1 1.47786 -8.85832 -1.41415 -4.58304
108 1 1.33156 -6.15566 1.73108 -4.59142
109 1 3.93411 -8.85439 1.63974 -4.54861
110 1 4.04991 -6.2874 -1.38377 -4.48217
111 1 5.0934 -10.1321 -2.90149 -4.57017
112 1 5.18258 -7.56995 0.189121 -4.53119
113 1 7.66102 -10.1167 0.379792 -4.56576
114 1 7.59456 -7.66417 57.237 -4.52633
115 1 6.27163 -9.00971 -1.2017 -4.52542
116 1 6.48386 -6.39316 1.7711 -4.57012
117 1 9.1072 -8.94813 1.8839 -4.5667
118 1 8.91526 -6.3654 -1.10229 -4.57319
119 1 10.3958 -10.1716 -2.61714 -4.55959
120 1 10.3269 -7.42722 0.445299 -4.54217
121 1 12.7393 -10.1101 0.760088 -4.36095
122 1 12.8613 -7.57838 57.3582 -4.50017
123 1 11.6381 -8.94177 -0.995368 -4.54154
124 1 11.7348 -6.31246 1.94109 -4.54807
125 1 14.1457 -8.59681 1.96067 -4.66361
126 1 14.15 -6.20435 -0.982115 -4.6598
127 1 15.3716 -10.3772 -2.59988 -4.34169
128 1 15.4738 -7.55738 0.269731 -4.60634
129 1 16.9544 -7.01297 -2.63478 -4.42945
130 1 16.6983 -9.04829 -1.17711 -4.38411
131 1 16.9147 -5.82993 1.16118 -4.17806
132 1 18.7157 -5.3538 57.2513 -3.77259
133 1 -18.238 -5.36 0.238115 -3.84405
134 1 -17.9694 -2.5574 -2.20586 -4.98171
135 1 -19.1647 -3.13551 0.00709231 -4.22255
136 1 -17.7465 -2.15026 1.43472 -4.65553
137 1 -16.8345 -5.05965 2.25929 -4.55142
138 1 -16.7066 -0.828013 -1.22947 -4.5724
139 1 -15.4047 -5.42048 -2.32639 -4.56268
140 1 -15.6541 -2.13405 0.360153 -4.49246
141 1 -12.8984 -5.20305 0.229954 -4.55566
142 1 -13.315 -2.67404 -2.79602 -4.52369
143 1 -14.4578 -3.72994 -0.969279 -4.46018
144 1 -14.2496 -0.872561 1.75418 -4.49616
145 1 -11.7069 -3.8019 1.71009 -4.56419
146 1 -11.6074 -1.54708 -1.43027 -4.51601
147 1 -10.358 -5.19645 57.1874 -4.57574
148 1 -10.3008 -2.60004 0.22644 -4.5807
149 1 -7.55608 -5.09569 0.348332 -4.55821
150 1 -7.82623 -2.46871 57.2325 -4.54406
151 1 -8.99706 -3.94044 -1.18005 -4.5982
152 1 -9.00319 -1.2229 1.59464 -4.54009
153 1 -6.30093 -3.72361 1.73177 -4.59103
154 1 -6.3069 -1.05889 -1.28977 -4.57992
155 1 -5.30179 -5.17186 -2.70705 -4.5375
156 1 -5.02384 -2.32434 0.301688 -4.56262
157 1 -2.45718 -4.82821 0.206514 -4.60203
158 1 -2.66614 -2.54241 -2.79642 -4.57059
159 1 -3.96174 -3.80249 -1.30307 -4.54594
160 1 -3.86449 -1.08379 1.97291 -4.56702
161 1 -1.13372 -3.43193 1.49168 -4.47829
162 1 -1.44507 -1.14284 -1.36342 -4.54195
163 1 -0.0868304 -4.95498 -2.79922 -4.54492
164 1 0.154376 -2.1717 0.0575743 -4.56156
165 1 2.7377 -4.98791 0.258917 -4.55737
166 1 2.6039 -2.41797 56.9801 -4.55848
167 1 1.39018 -3.71854 -1.26501 -4.57563
168 1 1.50039 -1.04502 1.68851 -4.53517
169 1 3.99831 -3.65072 1.65292 -4.57733
170 1 3.87602 -0.988007 -1.35585 -4.57718
171 1 5.19041 -5.05197 -3.0539 -4.58277
172 1 5.14721 -2.36645 0.0254085 -4.54698
173 1 7.58502 -5.00196 0.249266 -4.57923
174 1 7.7969 -2.55695 57.1874 -4.59607
175 1 6.33533 -3.83535 -1.4064 -4.56069
176 1 6.3309 -1.11454 1.7359 -4.56053
177 1 8.99124 -3.69975 1.69466 -4.56619
178 1 8.92853 -1.10232 -1.19265 -4.54313
179 1 10.3077 -5.20819 -2.65915 -4.5159
180 1 10.3133 -2.28946 0.286297 -4.57907
181 1 12.8157 -4.9265 0.461361 -4.53929
182 1 12.6486 -2.28419 57.4031 -4.53162
183 1 11.4543 -3.75865 -1.1204 -4.54981
184 1 11.4136 -1.12143 2.09039 -4.51807
185 1 14.2774 -3.76996 2.0837 -4.39111
186 1 13.8064 -1.15245 -0.675802 -4.55327
187 1 15.4563 -5.15799 -2.59448 -4.55511
188 1 15.3936 -2.4108 0.508761 -4.54747
189 1 18.3435 -4.52315 -0.372757 -4.54679
190 1 17.6837 -2.02628 57.0792 -4.68736
191 1 16.4931 -3.46998 -1.29264 -4.70735
192 1 16.538 -1.11453 2.0531 -4.47154
193 1 19.1184 -2.45382 0.623398 -3.99046
194 1 19.269 -0.995097 -1.42429 -3.89085
195 1 -20.0647 -1.37889 -1.60257 -4.3173
196 1 -18.8185 -0.0177511 1.72761 -4.41838
197 1 -18.4418 2.47312 -2.05876 -4.32147
198 1 -18.7552 0.341327 -0.715597 -4.41469
199 1 -18.7772 4.33376 2.78358 -3.60354
200 1 -16.848 1.26187 2.29146 -4.56307
201 1 -16.9053 3.55935 -0.62958 -4.4368
202 1 -15.544 0.166653 56.8864 -4.53193
203 1 -15.5448 1.93923 0.45702 -4.48024
204 1 -12.6773 -0.201878 0.110256 -4.50779
205 1 -13.051 2.51361 57.1335 -4.59872
206 1 -14.155 1.04136 -1.20592 -4.50869
207 1 -14.1692 3.48704 1.57394 -4.50887
208 1 -11.4895 1.3136 1.5947 -4.51994
209 1 -11.8051 3.88647 -1.26553 -4.57644
210 1 -10.4136 -0.0824959 -2.90544 -4.58184
211 1 -10.3015 2.62097 0.122988 -4.54867
212 1 -7.7193 0.179806 0.172822 -4.57553
213 1 -7.82811 2.59892 -2.83036 -4.58353
214 1 -9.12494 1.26156 -1.40717 -4.55703
215 1 -9.06515 3.9636 1.55411 -4.58866
216 1 -6.30897 1.30273 1.68972 -4.51686
217 1 -6.50387 3.93652 -1.368 -4.56673
218 1 -5.01742 0.262838 57.0861 -4.5225
219 1 -5.2901 2.79292 0.217954 -4.55346
220 1 -2.5192 -0.00954255 0.378758 -4.52824
221 1 -2.67743 2.78264 57.2671 -4.49226
222 1 -3.83991 1.51625 -1.05123 -4.56814
223 1 -3.9227 4.03959 1.56272 -4.56529
224 1 -1.11812 1.43506 1.69817 -4.60474
225 1 -1.2165 4.05537 -1.20367 -4.57524
226 1 -0.187884 0.0912215 -2.89696 -4.55621
227 1 0.209273 2.74843 0.114702 -4.53913
228 1 2.7678 0.364669 0.242038 -4.5219
229 1 2.53656 2.63447 -2.7379 -4.59808
230 1 1.16652 1.25809 -1.42041 -4.51563
231 1 1.35231 4.13684 1.78144 -4.57054
232 1 4.0132 1.84508 1.71165 -4.49091
233 1 3.89598 3.9563 -1.32622 -4.51635
234 1 5.18399 0.243857 -2.8207 -4.61982
235 1 5.45488 2.81024 0.14858 -4.53865
236 1 7.6504 0.164779 0.286376 -4.55331
237 1 7.81499 2.85989 57.0109 -4.54642
238 1 6.57163 1.46446 -1.34079 -4.54177
239 1 6.89966 4.03485 1.65961 -4.51997
240 1 9.00159 1.52068 1.76844 -4.49906
241 1 9.05772 4.23063 -1.25026 -4.47189
242 1 10.1742 0.205846 -2.82935 -4.57042
243 1 10.2999 2.8265 0.276152 -4.5423
244 1 12.4499 0.363072 0.545136 -4.57784
245 1 12.704 2.96483 -2.77987 -4.60888
246 1 11.4405 1.56378 -1.30899 -4.51184
247 1 11.8204 4.35875 1.50524 -4.50369
248 1 13.9052 1.6258 1.93537 -4.60095
249 1 14.2458 4.06499 -1.33984 -4.4851
250 1 14.7609 0.28803 -2.29061 -4.43984
251 1 15.3072 2.78826 0.419849 -4.39512
252 1 18.0795 -0.143384 0.61419 -4.77782
253 1 17.378 2.17324 57.4275 -4.32983
254 1 16.384 0.990752 -0.675829 -4.35365
255 1 16.8799 4.05557 1.63693 -4.83249
256 1 19.4647 0.841767 2.32352 -4.22446
257 1 19.1236 3.62497 -2.51937 -4.19129
258 1 19.5468 1.27584 56.8425 -4.01267
259 1 -18.1889 5.11388 0.587235 -4.41805
260 1 -17.745 7.94422 56.4728 -4.27735
261 1 -18.0382 6.38293 -1.57604 -4.13873
262 1 -16.6792 6.45289 1.81962 -4.6583
263 1 -16.8927 9.18095 -1.61736 -3.7502
264 1 -16.0711 4.97872 -2.37708 -5.26217
265 1 -15.7642 7.95567 0.0482863 -4.57482
266 1 -13.328 5.07042 0.0934764 -4.57982
267 1 -12.9649 7.5812 -2.81869 -4.52679
268 1 -14.4809 6.56416 -1.3688 -4.32131
269 1 -14.5059 9.2837 1.53097 -4.50887
270 1 -11.8057 6.28887 1.35764 -4.54501
271 1 -11.6087 9.0132 -1.53819 -4.56969
272 1 -10.5872 5.18881 -3.0067 -4.54818
273 1 -10.4298 7.51275 -0.14796 -4.63196
274 1 -7.67793 5.27962 0.189041 -4.54536
275 1 -7.81486 7.9321 57.042 -4.61166
276 1 -9.09239 6.30242 -1.59232 -4.54525
277 1 -9.09572 8.8326 1.26621 -4.53586
278 1 -6.29216 6.52 1.55898 -4.45026
279 1 -6.38462 9.15146 -1.45266 -4.59768
280 1 -5.21038 5.22436 57.0407 -4.60906
281 1 -5.25987 7.74303 0.0519005 -4.41971
282 1 -2.46216 5.37136 0.171755 -4.55132
283 1 -2.54633 7.91628 -2.9394 -4.54818
284 1 -3.84612 6.66193 -1.38777 -4.57756
285 1 -3.95751 9.05729 1.63734 -4.58593
286 1 -1.17937 6.71181 1.67488 -4.61369
287 1 -1.36364 9.23472 -1.33472 -4.53638
288 1 0.100592 5.22307 57.0065 -4.5212
289 1 0.111819 8.10141 0.17385 -4.56193
290 1 2.90097 5.22836 0.327023 -4.55716
291 1 2.59445 7.67692 57.4881 -4.47328
292 1 1.23311 6.27327 -0.96427 -4.5328
293 1 1.38268 9.38644 1.69185 -4.56316
294 1 4.06305 6.69805 1.78836 -4.56889
295 1 3.86494 9.24068 -1.14591 -4.59013
296 1 5.20844 5.19208 57.0007 -4.58858
297 1 5.2072 7.94618 0.208103 -4.57521
298 1 7.92488 5.55442 0.195613 -4.54768
299 1 7.72673 7.71912 56.9132 -4.53431
300 1 6.51781 6.54458 -1.27822 -4.48039
301 1 6.61898 9.27503 1.68594 -4.62047
302 1 9.45865 6.90145 1.31924 -4.41792
303 1 8.83282 9.35218 -1.65517 -4.49581
304 1 9.89726 5.42057 56.7867 -4.48009
305 1 10.6 8.40186 -0.338638 -4.33451
306 1 13.0691 5.70099 -0.115606 -4.51161
307 1 12.9016 7.72717 56.5539 -4.3647
308 1 11.5202 6.64104 -1.76169 -4.5669
309 1 12.1837 9.84224 2.02446 -4.44301
310 1 14.4905 6.81389 1.48432 -4.53663
311 1 14.1416 8.71491 -1.54161 -4.30764
312 1 15.0623 5.29044 56.6191 -4.3118
313 1 16.2527 8.08944 0.713736 -4.50924
314 1 18.6461 4.54342 -0.0957067 -3.98438
315 1 16.9425 6.54281 56.8507 -4.65161
316 1 17.0308 6.31695 -0.646817 -3.63244
317 1 17.2192 8.74231 2.82893 -4.22405
318 1 19.0311 4.95942 2.167 -4.13321
319 1 -15.9747 13.0251 2.74924 -4.16918
320 1 -15.3411 10.6685 57.208 -4.702
321 1 -15.3217 13.4662 0.376471 -4.23756
322 1 -12.7063 10.2006 0.250156 -4.57264
323 1 -12.9527 12.9692 -2.49684 -4.67397
324 1 -14.1387 11.7484 -0.827175 -4.5608
325 1 -13.8251 14.0587 2.26639 -4.93529
326 1 -11.2768 11.6061 1.50491 -4.53793
327 1 -11.9863 14.5066 -1.11192 -4.65655
328 1 -10.259 10.4212 56.8977 -4.60359
329 1 -10.3737 12.9912 -0.147042 -4.45134
330 1 -7.79343 10.3516 -0.0590028 -4.61119
331 1 -7.77833 12.8926 56.6135 -4.5512
332 1 -8.97784 11.7804 -1.53442 -4.51232
333 1 -9.36556 14.2129 1.5307 -4.48244
334 1 -6.43055 11.649 1.4151 -4.58561
335 1 -6.55738 14.1593 -1.68606 -4.54341
336 1 -5.00325 10.5143 57.0308 -4.52422
337 1 -5.27179 13.0922 0.0754389 -4.55383
338 1 -2.5556 10.4619 0.389125 -4.53688
339 1 -2.82985 13.0742 57.1743 -4.57918
340 1 -3.84332 11.7237 -1.15025 -4.57166
341 1 -3.96061 14.3046 1.62169 -4.42474
342 1 -1.21857 11.8703 1.85345 -4.52318
343 1 -1.36541 14.3267 -1.32141 -4.58983
344 1 0.0245402 10.3645 56.9814 -4.58558
345 1 -0.0991057 12.9502 0.129791 -4.54986
346 1 2.75105 10.7367 0.216197 -4.53424
347 1 2.30943 12.967 -2.95692 -4.48524
348 1 1.30616 11.7488 -1.28536 -4.50033
349 1 1.20558 14.1214 1.60623 -4.55755
350 1 4.06418 11.8258 1.78123 -4.56467
351 1 3.7998 14.0655 -1.43537 -4.45305
352 1 5.15973 10.377 -2.73082 -4.48052
353 1 5.32786 13.2581 0.312444 -4.39549
354 1 8.02342 10.6441 0.293789 -4.47699
355 1 7.3104 12.9013 57.018 -4.55919
356 1 6.3434 11.6083 -1.13231 -4.54479
357 1 6.5452 14.695 2.01444 -4.49386
358 1 9.10801 12.2737 1.7147 -4.32662
359 1 8.55372 14.2594 -1.4497 -4.58238
360 1 10.2288 10.1503 56.6158 -4.36238
361 1 10.2941 12.9287 -0.443237 -4.35831
362 1 12.3886 10.0712 -0.470097 -4.89522
363 1 12.8097 12.7954 55.977 -4.19799
364 1 11.5275 11.749 -2.02677 -4.78634
365 1 11.4695 14.3324 2.19298 -3.53574
366 1 14.1639 11.0776 2.26073 -4.46965
367 1 13.3166 13.2784 -1.39573 -4.19486
368 1 15.0328 10.1023 56.4041 -4.00731
369 1 14.2682 11.5543 -0.0809242 -4.40333
370 1 15.9263 10.017 -0.905309 -4.18502
371 1 -13.91 15.3258 0.151544 -3.82614
372 1 -12.8569 16.1778 2.74271 -3.8603
373 1 -9.37411 15.6402 56.742 -4.46699
374 1 -8.14272 15.2344 -0.212796 -4.57263
375 1 -8.60076 17.8362 56.6856 -4.47363
376 1 -9.57034 16.916 -1.08519 -4.45533
377 1 -6.78593 16.2311 1.37915 -4.73919
378 1 -7.78955 18.4581 -1.11211 -3.64702
379 1 -5.39207 15.8077 57.0156 -4.57699
380 1 -5.82915 17.8601 -0.106874 -4.73991
381 1 -2.86145 15.5295 -0.083924 -4.5505
382 1 -2.76364 18.3385 56.9095 -4.56763
383 1 -4.01732 17.0502 -1.35687 -4.46719
384 1 -5.38305 19.1816 1.77782 -4.00069
385 1 -1.72378 16.6695 1.6091 -4.52322
386 1 -0.783328 19.0863 -1.7293 -3.67198
387 1 0.212531 15.469 -2.6254 -4.50842
388 1 -0.300518 18.0796 0.292796 -4.6978
389 1 2.67605 15.3706 0.268207 -4.59739
390 1 2.66918 18.3722 -2.01243 -4.44028
391 1 1.24943 16.7775 -1.02056 -4.64712
392 1 0.858462 19.5874 1.69589 -4.47878
393 1 3.73816 16.9882 1.66238 -4.56879
394 1 2.59525 19.821 -0.151157 -4.20398
395 1 4.90317 15.5705 57.1203 -4.41189
396 1 4.80583 18.7548 0.427851 -4.35346
397 1 7.87824 16.3429 -0.593841 -4.5387
398 1 9.16783 17.775 -1.91099 -4.40731
399 1 5.92648 17.334 -1.42673 -4.41386
400 1 5.64063 19.4638 2.64203 -3.54634
401 1 8.42877 16.2373 1.80743 -4.48962
402 1 9.7668 14.9527 56.4787 -4.52481
403 1 11.744 14.6312 -0.18021 -4.72883
404 1 11.0324 16.1795 -1.80496 -3.64544
405 1 1.20359 20.2152 -2.10845 -4.42199
406 1 -12.5885 -15.7118 2.76473 -4.32061
407 1 -7.86446 -17.8674 3.07029 -3.72101
408 1 -8.91053 -16.5913 7.70104 -3.69131
409 1 -6.29114 -19.0992 8.47902 -4.03228
410 1 -6.28301 -16.8871 4.68604 -4.55024
411 1 -5.26951 -18.2585 6.32374 -4.5556
412 1 -2.42922 -18.3774 3.3025 -4.48976
413 1 -3.31494 -19.241 5.3898 -3.56895
414 1 -3.82131 -16.7114 7.30574 -4.47134
415 1 -1.67267 -19.2869 7.10033 -4.18989
416 1 -1.21358 -16.6908 4.41369 -4.67899
417 1 1.037 -20.5915 0.51475 -4.0043
418 1 -0.00463243 -18.0643 5.93045 -4.60176
419 1 2.689 -17.9799 2.65144 -4.54178
420 1 0.920585 -18.9259 3.83319 -3.72558
421 1 1.22919 -16.4107 7.14146 -4.53635
422 1 4.19346 -19.1843 8.08125 -4.38029
423 1 3.9061 -16.8435 4.48663 -4.4138
424 1 5.18018 -18.1868 6.13053 -4.48221
425 1 8.03396 -17.7526 2.68583 -4.41855
426 1 7.16657 -18.7029 4.8238 -3.37893
427 1 6.17458 -16.5544 7.404 -4.40479
428 1 8.91547 -16.9764 4.77653 -4.3547
429 1 12.8208 -15.28 8.78435 -4.4718
430 1 -17.4886 -10.1285 5.23804 -4.25209
431 1 -16.1048 -12.0788 5.47719 -4.38477
432 1 -13.1046 -14.0208 4.31963 -4.42386
433 1 -12.4749 -12.4563 2.78427 -4.42992
434 1 -15.249 -13.5279 3.80542 -3.65757
435 1 -14.3677 -11.63 7.04774 -4.56746
436 1 -11.8261 -14.1584 6.80762 -4.20192
437 1 -11.4825 -11.3597 4.54717 -4.53888
438 1 -10.2048 -15.8314 3.01164 -4.21535
439 1 -10.23 -12.8077 5.97082 -4.64798
440 1 -7.57309 -15.4962 6.13579 -4.67294
441 1 -7.62741 -12.8732 3.05849 -4.59691
442 1 -8.99242 -14.3249 4.50801 -4.48527
443 1 -8.99697 -11.7528 7.74792 -4.55603
444 1 -6.28124 -14.1488 7.49573 -4.54637
445 1 -6.47511 -11.441 4.61293 -4.55243
446 1 -4.99218 -15.6091 3.08953 -4.56851
447 1 -5.12431 -12.8453 5.95759 -4.55392
448 1 -2.48353 -15.3344 5.91013 -4.55381
449 1 -2.5749 -12.4813 3.15405 -4.58968
450 1 -3.81789 -14.085 4.37804 -4.60077
451 1 -3.96839 -11.5631 7.65225 -4.51681
452 1 -1.34617 -13.9129 7.36745 -4.592
453 1 -1.0904 -11.3327 4.60029 -4.55347
454 1 0.0860472 -15.3017 2.87271 -4.54638
455 1 0.146583 -12.6194 6.05518 -4.56541
456 1 2.73632 -15.2083 5.75586 -4.54964
457 1 2.5884 -12.5835 3.20917 -4.53396
458 1 1.19134 -14.0774 4.49394 -4.57092
459 1 1.39895 -11.371 7.62963 -4.57127
460 1 3.73549 -13.8943 7.52452 -4.51943
461 1 3.91703 -11.4433 4.68833 -4.5684
462 1 4.95789 -15.3021 3.04238 -4.53611
463 1 5.29488 -12.8093 6.03059 -4.56849
464 1 7.77545 -15.4074 6.22648 -4.47421
465 1 7.83861 -12.8366 3.19459 -4.57336
466 1 6.48443 -14.2733 4.56607 -4.61259
467 1 6.49105 -11.4852 7.76894 -4.54653
468 1 9.08182 -14.0711 7.74823 -4.49913
469 1 9.09036 -11.7376 4.95083 -4.58392
470 1 10.5642 -15.6219 3.46566 -4.45535
471 1 10.588 -13.0693 6.1895 -4.55866
472 1 13.4353 -14.8804 6.44722 -3.75793
473 1 13.2245 -12.8348 3.16544 -4.27732
474 1 12.0416 -14.1267 4.64896 -4.60933
475 1 11.7382 -11.6943 7.7075 -4.48742
476 1 13.385 -13.0083 8.82468 -4.71176
477 1 14.418 -11.5386 4.73486 -4.42829
478 1 15.108 -13.1316 6.29436 -3.76345
479 1 15.7266 -12.9612 8.59587 -4.47994
480 1 -18.0577 -7.95057 4.10884 -4.58461
481 1 -18.9252 -5.86789 8.95265 -4.2723
482 1 -16.9411 -9.42101 7.5377 -4.58661
483 1 -16.5555 -6.66209 5.39013 -4.66416
484 1 -15.5098 -10.3262 4.00674 -4.60844
485 1 -15.1925 -7.89473 6.79454 -4.61241
486 1 -12.7671 -10.1851 6.18151 -4.62065
487 1 -12.7432 -7.77118 3.26002 -4.49933
488 1 -14.0405 -8.82898 4.89029 -4.62037
489 1 -13.7206 -6.47049 7.84869 -4.49638
490 1 -11.5883 -8.78894 7.71538 -4.53392
491 1 -11.5223 -6.40809 4.78238 -4.586
492 1 -10.0921 -10.1055 3.15178 -4.56483
493 1 -10.0846 -7.62398 6.24233 -4.5715
494 1 -7.63976 -10.31 6.30009 -4.51944
495 1 -7.64106 -7.39074 3.26254 -4.58419
496 1 -8.71815 -8.88271 4.76105 -4.5178
497 1 -8.88535 -6.32081 7.65672 -4.56739
498 1 -6.37956 -9.06874 7.75422 -4.55604
499 1 -6.19343 -6.17924 4.66824 -4.5411
500 1 -5.27143 -10.0891 3.10943 -4.60514
501 1 -5.30131 -7.63445 6.20752 -4.50625
502 1 -2.69522 -10.2751 6.08622 -4.54504
503 1 -2.62096 -7.70119 3.00067 -4.53192
504 1 -3.9205 -8.83774 4.59069 -4.56745
505 1 -3.83138 -6.36562 7.68994 -4.56068
506 1 -1.23533 -9.10288 7.6247 -4.55482
507 1 -1.45654 -6.52562 4.63491 -4.52634
508 1 0.197541 -10.1952 2.99768 -4.52112
509 1 -0.0212082 -7.71895 6.06823 -4.56046
510 1 2.81359 -10.0939 6.24019 -4.56177
511 1 2.70176 -7.51488 3.09857 -4.58667
512 1 1.45701 -8.81045 4.66644 -4.53927
513 1 1.46458 -6.44429 7.49205 -4.49486
514 1 4.04551 -8.71293 7.80639 -4.58235
515 1 4.07024 -6.30204 4.60762 -4.54886
516 1 5.22882 -10.1485 3.22595 -4.566
517 1 5.40055 -7.46763 6.19 -4.56685
518 1 7.99356 -10.2058 6.39655 -4.56284
519 1 7.8595 -7.61497 3.25395 -4.58949
520 1 6.68458 -8.94948 4.84235 -4.55813
521 1 6.75198 -6.27348 7.69469 -4.51421
522 1 9.24334 -8.8755 8.04231 -4.54394
523 1 9.36803 -6.30885 4.64169 -4.55064
524 1 10.2685 -10.176 3.57464 -4.57737
525 1 10.5391 -7.54407 6.40555 -4.51963
526 1 13.1874 -10.2721 6.37835 -4.59976
527 1 12.9725 -7.40714 3.67208 -4.39017
528 1 11.812 -9.01036 4.99753 -4.5892
529 1 11.9523 -6.26894 8.01864 -4.51596
530 1 14.5719 -9.16649 7.9027 -4.47449
531 1 14.6358 -6.35489 5.07267 -4.66746
532 1 15.8455 -10.0395 2.87388 -4.03877
533 1 15.7711 -7.50836 6.86098 -4.1236
534 1 17.6749 -6.93384 3.10377 -4.45182
535 1 16.2766 -8.2821 4.47285 -4.02366
536 1 17.1084 -6.16847 8.52227 -4.26672
537 1 18.7918 -5.41868 4.5045 -3.6073
538 1 -17.9056 -5.13742 6.66986 -4.42265
539 1 -17.3874 -3.24197 3.48719 -4.28151
540 1 -19.094 -4.30449 4.73876 -4.4836
541 1 -19.26 -2.12349 5.88114 -3.92609
542 1 -16.5333 -3.66757 7.94315 -4.58389
543 1 -17.1526 -1.22256 5.044 -5.30138
544 1 -15.1112 -5.67228 3.80368 -4.44696
545 1 -15.4193 -2.39039 6.30017 -4.3194
546 1 -12.9633 -5.01371 6.20196 -4.50989
547 1 -13.1269 -2.59625 3.01179 -4.49597
548 1 -14.2071 -3.7188 4.77128 -4.4913
549 1 -13.8616 -1.18283 7.55 -4.54323
550 1 -11.57 -3.73618 7.69032 -4.57484
551 1 -11.7833 -1.34202 4.62101 -4.51991
552 1 -10.3554 -4.96462 3.23684 -4.59581
553 1 -10.2756 -2.28905 6.12023 -4.49817
554 1 -7.62669 -4.92232 6.15763 -4.5581
555 1 -7.64001 -2.3522 3.19693 -4.56903
556 1 -8.96301 -3.66129 4.64677 -4.6164
557 1 -8.93202 -1.31246 7.74285 -4.48035
558 1 -6.38863 -3.615 7.74092 -4.59961
559 1 -6.31542 -1.23493 4.88072 -4.60273
560 1 -4.92903 -4.93649 3.1916 -4.54773
561 1 -4.87054 -2.43992 6.31038 -4.54565
562 1 -2.4929 -5.14296 6.25671 -4.57824
563 1 -2.37114 -2.56599 3.23344 -4.51171
564 1 -3.62654 -3.70932 4.77051 -4.51886
565 1 -3.50751 -1.06755 7.81278 -4.57419
566 1 -0.9675 -3.97118 7.71846 -4.55816
567 1 -1.23461 -1.07649 4.60314 -4.58433
568 1 -0.272807 -5.02933 3.07726 -4.52546
569 1 -0.0699877 -2.51703 6.09879 -4.5732
570 1 2.64607 -4.9393 6.15424 -4.51745
571 1 2.50913 -2.54726 3.07521 -4.53208
572 1 1.22302 -3.81611 4.57111 -4.57627
573 1 1.33695 -1.17032 7.53497 -4.5764
574 1 3.8204 -3.70403 7.77668 -4.56852
575 1 3.91974 -1.4287 4.62379 -4.54472
576 1 5.2521 -4.89981 3.18203 -4.57779
577 1 5.31368 -2.38331 6.33084 -4.51693
578 1 8.07749 -4.8963 6.13724 -4.52754
579 1 7.75772 -2.3541 3.19932 -4.57557
580 1 6.63495 -3.65235 4.76044 -4.54676
581 1 6.42814 -0.953369 7.80612 -4.59622
582 1 9.18482 -3.81051 7.82777 -4.44209
583 1 9.08677 -1.03964 4.82804 -4.53945
584 1 10.4581 -4.73488 3.25615 -4.56714
585 1 10.2715 -2.49552 6.25708 -4.58447
586 1 13.2221 -5.17934 6.53518 -4.30763
587 1 12.9044 -2.45808 3.49949 -4.57011
588 1 11.777 -3.90974 5.00476 -4.54369
589 1 11.6025 -1.29594 7.76266 -4.57558
590 1 14.2736 -3.60559 7.93423 -4.54101
591 1 14.068 -1.16766 4.98626 -4.59622
592 1 15.9144 -5.14982 3.33766 -4.67215
593 1 15.5004 -2.53779 6.29463 -4.37388
594 1 17.7902 -4.92533 6.56386 -3.43397
595 1 18.3237 -2.44814 2.96345 -4.2128
596 1 17.0549 -3.63495 4.75502 -4.87549
597 1 16.7532 -0.94254 7.50319 -4.56554
598 1 18.5898 -1.92291 8.51908 -4.59097
599 1 19.3073 -0.522898 4.17861 -4.37367
600 1 -19.3005 -0.293304 4.16589 -3.96874
601 1 -17.609 0.438388 6.85676 -4.49354
602 1 -17.6764 2.69535 3.95865 -4.70824
603 1 -19.1137 1.77227 5.62434 -4.5933
604 1 -18.9854 3.62206 7.25709 -3.58188
605 1 -16.3362 1.93244 8.06298 -4.58022
606 1 -16.5485 4.3174 4.98402 -4.56801
607 1 -15.4399 -0.2308 3.66137 -4.26883
608 1 -15.2178 2.79692 6.25951 -4.45279
609 1 -12.5994 0.328156 6.2207 -4.56628
610 1 -12.7681 2.39115 3.21481 -4.52618
611 1 -14.1287 1.3816 4.82406 -4.53219
612 1 -13.8898 4.24745 7.66968 -4.56189
613 1 -11.137 1.36254 7.64604 -4.51424
614 1 -11.5798 3.95863 4.57612 -4.56112
615 1 -10.3333 -0.198506 3.16192 -4.55774
616 1 -10.0899 2.82209 6.1668 -4.52636
617 1 -7.67853 0.177333 6.22043 -4.55137
618 1 -7.66935 2.7024 3.1236 -4.57136
619 1 -9.04339 1.28892 4.56474 -4.54225
620 1 -8.79299 4.02939 7.69137 -4.54656
621 1 -6.13177 1.38477 7.73339 -4.53762
622 1 -6.41253 3.88837 4.70029 -4.5161
623 1 -5.16407 0.251213 3.41282 -4.50109
624 1 -5.00454 2.92487 6.28641 -4.58291
625 1 -2.37459 0.319611 6.22069 -4.55862
626 1 -2.53808 2.81726 3.15193 -4.51672
627 1 -3.79704 1.47157 4.77071 -4.54281
628 1 -3.65759 4.09361 7.82558 -4.54392
629 1 -0.903359 1.51044 7.64831 -4.55239
630 1 -1.30323 4.13139 4.57408 -4.54085
631 1 0.180217 0.16649 3.19052 -4.57648
632 1 0.137777 3.14877 6.20579 -4.53936
633 1 2.80371 0.0682373 6.08892 -4.58156
634 1 2.6601 2.88136 3.32996 -4.59728
635 1 1.31464 1.5622 4.84646 -4.56526
636 1 1.56157 4.31583 7.79883 -4.49472
637 1 3.9134 1.60605 7.51861 -4.49484
638 1 4.09779 4.24357 4.6358 -4.59493
639 1 5.00641 0.142754 3.17415 -4.54768
640 1 5.41113 3.03818 6.13355 -4.56633
641 1 7.71139 0.350662 6.24192 -4.58501
642 1 7.74149 2.67178 3.33219 -4.55688
643 1 6.33678 1.3953 4.74473 -4.53047
644 1 6.57687 4.29958 7.80092 -4.52696
645 1 9.24576 1.55943 7.62222 -4.578
646 1 9.00301 4.21337 4.651 -4.5292
647 1 10.2463 0.422171 3.32543 -4.56005
648 1 10.4537 3.01214 6.13717 -4.59923
649 1 12.7756 0.22159 6.40485 -4.53467
650 1 12.7495 3.09678 3.3251 -4.54625
651 1 11.7032 1.5843 4.7094 -4.51865
652 1 11.4937 4.34004 7.85494 -4.49891
653 1 13.9297 1.54525 7.91986 -4.56678
654 1 14.0939 4.27053 4.80466 -4.48764
655 1 15.0179 0.215833 3.36255 -4.52371
656 1 15.1071 2.84927 6.34452 -4.54286
657 1 17.8376 0.190704 5.75395 -4.67927
658 1 17.5405 2.2213 2.8071 -4.54249
659 1 16.2253 1.55734 4.74505 -4.57869
660 1 16.6377 4.13038 7.41737 -4.54088
661 1 19.2609 1.76294 6.70718 -4.31341
662 1 18.9951 3.51189 4.04756 -4.58904
663 1 20.385 1.63154 4.52365 -4.15788
664 1 -18.8617 6.0285 7.07261 -4.50718
665 1 -17.5449 7.7004 3.64127 -3.62958
666 1 -18.3617 5.72764 4.65578 -4.55044
667 1 -16.5537 6.66396 7.4279 -4.66609
668 1 -16.9578 9.5418 4.88975 -4.43861
669 1 -15.3189 5.08818 3.1403 -4.56362
670 1 -15.448 8.18738 5.87112 -4.53815
671 1 -12.8241 5.43094 5.9411 -4.58802
672 1 -12.9709 7.90324 2.79202 -4.572
673 1 -14.1575 6.71203 4.52523 -4.55015
674 1 -14.2337 9.09048 7.70223 -4.57904
675 1 -11.3727 6.66197 7.34323 -4.42567
676 1 -11.5621 9.00861 4.36072 -4.51606
677 1 -10.3926 5.22667 3.03535 -4.54452
678 1 -10.2076 7.75975 5.80652 -4.49183
679 1 -7.6359 5.24108 6.1272 -4.52073
680 1 -7.76315 7.7116 2.87027 -4.5691
681 1 -8.91915 6.33006 4.38133 -4.52668
682 1 -8.93922 8.88055 7.34742 -4.52042
683 1 -6.40153 6.58301 7.51309 -4.54133
684 1 -6.62942 9.10039 4.33623 -4.57287
685 1 -5.16391 5.21701 3.15063 -4.56183
686 1 -5.22474 7.93472 5.94193 -4.56393
687 1 -2.49463 5.41651 6.13905 -4.51881
688 1 -2.60467 7.95571 3.19109 -4.57889
689 1 -3.83939 6.5312 4.57689 -4.60091
690 1 -3.85716 9.18172 7.47671 -4.56261
691 1 -1.23741 6.59062 7.80178 -4.558
692 1 -1.25759 9.18837 4.73555 -4.50666
693 1 0.0839729 5.47045 3.23452 -4.60205
694 1 -0.00162783 8.02016 6.2819 -4.54542
695 1 2.68756 5.39109 6.11447 -4.53836
696 1 2.71966 7.98704 3.14007 -4.54381
697 1 1.3812 6.79738 4.67301 -4.57811
698 1 1.46217 9.05556 7.78037 -4.60404
699 1 4.09363 6.70991 7.46186 -4.54179
700 1 4.04065 9.23702 4.71141 -4.60149
701 1 5.54435 5.32326 3.11143 -4.59663
702 1 5.54597 8.12017 6.12843 -4.53864
703 1 7.81344 5.50482 6.23794 -4.57691
704 1 8.14646 7.92744 2.97967 -4.52245
705 1 6.73247 6.76773 4.4979 -4.55264
706 1 6.89177 9.5392 7.56075 -4.44115
707 1 9.31966 6.95762 7.39601 -4.40518
708 1 9.13875 9.65847 4.48879 -4.58909
709 1 10.245 5.34857 2.90561 -4.50075
710 1 10.5707 8.32864 5.73676 -4.36484
711 1 12.8441 5.5958 6.17788 -4.45011
712 1 12.8946 7.79779 2.9742 -4.55008
713 1 11.4824 6.61649 4.46666 -4.57494
714 1 12.2885 9.7087 8.6582 -4.47931
715 1 14.1173 6.67908 7.71178 -4.3165
716 1 14.1449 8.56082 4.78384 -4.313
717 1 15.3186 5.2084 3.03544 -4.176
718 1 15.745 7.74746 6.421 -4.81539
719 1 17.5961 4.868 5.38116 -4.18535
720 1 18.9362 7.14297 3.36047 -4.07382
721 1 16.7415 6.76989 4.25013 -5.23757
722 1 17.0066 9.46045 8.5694 -3.68221
723 1 18.7982 6.90028 5.72512 -4.06615
724 1 -15.9869 11.3098 6.29351 -4.06958
725 1 -15.7976 10.6141 2.96661 -4.38664
726 1 -15.2285 13.2547 5.08325 -4.24581
727 1 -12.7394 10.0297 6.15284 -4.41863
728 1 -12.404 12.5743 3.39291 -3.98958
729 1 -14.0527 11.2349 4.66119 -4.98518
730 1 -13.5345 14.417 6.27937 -4.11614
731 1 -11.3026 11.5463 7.33426 -4.59664
732 1 -11.4723 14.3677 4.87506 -5.44786
733 1 -10.0281 10.1308 3.00979 -4.53213
734 1 -9.92945 12.9228 6.03087 -4.38962
735 1 -7.65211 10.4783 5.98389 -4.53492
736 1 -7.74808 13.0553 2.7252 -4.57039
737 1 -8.88196 11.669 4.369 -4.53111
738 1 -8.52301 14.3745 7.24658 -4.57575
739 1 -6.22797 11.5992 7.38048 -4.49143
740 1 -6.55144 14.4417 4.17655 -4.64983
741 1 -5.15205 10.402 3.09994 -4.54263
742 1 -5.35997 13.1684 5.7867 -4.51895
743 1 -2.56644 10.7086 6.20925 -4.52831
744 1 -2.62381 13.2999 3.31194 -4.52056