ITEM: TIMESTEP
286000
ITEM: NUMBER OF ATOMS
4050
ITEM: BOX BOUNDS ss ss pp
-2.0563433706010517e+01 2.0250989703499872e+01
-2.0505394263664936e+01 2.0063060217152390e+01
-3.8831650000000004e+00 5.8193165000000000e+01
ITEM: ATOMS id type x y z c_peratom
1 1 -11.7286 -15.2031 -1.37007 -3.8332
2 1 -7.33438 -17.9432 -3.14422 -4.30723
3 1 -9.07218 -16.6713 0.295321 -4.57463
4 1 -7.35092 -18.1501 -0.205162 -3.88868
5 1 -6.15833 -16.0682 -2.24444 -4.69807
6 1 -5.17534 -17.6179 -0.824063 -4.63205
7 1 -2.37091 -17.9354 58.0783 -4.61471
8 1 -4.42429 -18.6156 -3.01881 -3.78637
9 1 -3.70235 -16.5175 0.694578 -4.46552
10 1 -0.812863 -18.4715 1.09713 -4.31083
11 1 -1.38115 -16.3893 -2.5366 -4.52371
12 1 0.0279108 -19.5086 -1.89574 -4.43054
13 1 0.052557 -17.3191 -0.870503 -4.5252
14 1 2.99812 -17.6547 58.0489 -4.6815
15 1 2.18639 -19.3572 -2.70956 -4.05909
16 1 1.51121 -16.201 0.543757 -4.5345
17 1 2.93619 -19.2421 -0.42103 -4.25704
18 1 3.82241 -16.182 -2.36992 -4.68491
19 1 4.85927 -17.8401 -1.16117 -4.4266
20 1 6.49575 -18.1663 -2.84223 -4.30772
21 1 9.17882 -17.2112 -0.184154 -4.28458
22 1 6.08949 -16.5527 0.581126 -4.44624
23 1 8.58215 -16.8802 -2.35172 -4.13535
24 1 11.0943 -15.995 0.578802 -3.85076
25 1 -14.354 -12.3394 -1.61557 -4.14119
26 1 -15.333 -13.4414 0.055245 -4.1588
27 1 -13.9066 -15.3724 -0.293053 -4.28622
28 1 -12.2025 -13.0287 -3.89155 -4.4719
29 1 -13.6756 -14.41 -2.46126 -4.47709
30 1 -13.8211 -11.0778 0.25176 -4.07326
31 1 -11.388 -13.8597 0.771537 -4.77381
32 1 -11.3447 -11.3133 -2.49767 -4.46875
33 1 -10.0898 -15.5168 -3.6713 -4.21323
34 1 -10.0964 -12.5529 -0.8081 -4.3754
35 1 -7.61203 -15.0114 -0.773452 -4.61597
36 1 -7.49866 -12.6904 -3.74516 -4.57876
37 1 -8.94404 -13.9252 -2.36213 -4.61346
38 1 -8.8081 -11.2423 0.733372 -4.52922
39 1 -6.20644 -13.7826 0.755422 -4.51249
40 1 -6.24429 -11.2356 -2.31517 -4.57394
41 1 -4.5678 -15.0465 -3.65073 -4.51284
42 1 -4.99526 -12.6368 -0.820643 -4.52906
43 1 -2.36086 -15.0909 -0.811037 -4.49266
44 1 -2.1009 -12.518 58.1673 -4.51897
45 1 -3.41243 -13.623 -2.27525 -4.56795
46 1 -3.67018 -11.3264 0.693053 -4.51274
47 1 -1.12013 -13.7068 0.696798 -4.49688
48 1 -0.957237 -11.2226 -2.28176 -4.5388
49 1 0.293035 -15.2713 -3.7741 -4.55656
50 1 0.266139 -12.4285 -0.73096 -4.49891
51 1 2.58965 -14.8052 -0.963911 -4.53286
52 1 2.74907 -12.5412 57.9843 -4.52415
53 1 1.38764 -13.6226 -2.55456 -4.478
54 1 1.47908 -11.1973 0.850943 -4.53957
55 1 4.06428 -13.8238 0.621873 -4.5179
56 1 4.04583 -11.3862 -2.4496 -4.50674
57 1 5.19023 -15.0069 -3.81965 -4.57308
58 1 5.25999 -12.4999 -0.813188 -4.3442
59 1 7.75606 -15.2923 -0.710606 -4.94501
60 1 7.95912 -12.5398 58.1753 -4.50292
61 1 6.69805 -13.9322 -2.44201 -4.30633
62 1 6.25863 -11.277 1.11387 -4.447
63 1 8.89536 -13.995 0.988719 -4.43912
64 1 8.55768 -11.1825 -2.06114 -4.49993
65 1 10.0703 -15.6067 -3.74785 -4.21073
66 1 9.72527 -12.3287 -0.352247 -4.24694
67 1 12.0871 -14.4526 -0.729389 -4.37599
68 1 11.7619 -11.8922 -3.44446 -4.37916
69 1 10.4694 -13.6634 -2.32344 -4.8805
70 1 11.3768 -11.3147 0.952268 -4.58038
71 1 13.8991 -13.2539 -0.0405155 -4.09576
72 1 13.7635 -11.0721 -1.11565 -4.84797
73 1 15.526 -12.5648 -1.62802 -4.02437
74 1 16.0433 -10.4753 -0.428561 -4.17948
75 1 -17.5868 -7.51397 57.4495 -4.2368
76 1 -18.6843 -5.77781 1.78721 -4.02297
77 1 -16.3723 -8.41702 0.992655 -3.59716
78 1 -16.7007 -6.59693 -2.54426 -4.41353
79 1 -14.9161 -10.5246 -3.76927 -4.02782
80 1 -15.3654 -7.7171 -1.02109 -4.47615
81 1 -12.2647 -9.97855 -0.935918 -4.51927
82 1 -12.6324 -7.57354 58.0766 -4.52076
83 1 -13.8579 -8.92076 -2.40398 -4.64407
84 1 -13.9588 -6.49411 0.452714 -4.40759
85 1 -11.0976 -8.6609 0.722899 -4.52285
86 1 -11.4919 -6.40501 -2.22671 -4.50074
87 1 -9.92183 -10.0315 58.1865 -4.5941
88 1 -9.91824 -7.36594 -0.743539 -4.47219
89 1 -7.63985 -10.0142 -0.86571 -4.52247
90 1 -7.43785 -7.60801 58.1332 -4.52673
91 1 -8.79183 -8.6541 -2.34313 -4.53282
92 1 -8.70356 -6.24064 0.843955 -4.4729
93 1 -6.25997 -8.68497 0.68339 -4.55564
94 1 -6.23332 -6.14307 -2.31667 -4.53551
95 1 -4.91681 -10.2073 58.185 -4.49555
96 1 -4.86647 -7.44703 -0.770336 -4.52587
97 1 -2.43002 -10.1231 -0.795492 -4.52847
98 1 -2.68384 -7.47312 -3.92079 -4.53132
99 1 -3.74813 -8.86844 -2.41135 -4.50768
100 1 -3.78501 -6.05143 0.842402 -4.5583
101 1 -1.14817 -8.68099 0.744857 -4.51284
102 1 -1.27094 -6.26982 -2.37466 -4.55521
103 1 0.178916 -9.88142 -3.90815 -4.50774
104 1 0.00815811 -7.61074 -0.905323 -4.52859
105 1 2.82491 -10.2154 -0.783757 -4.51794
106 1 2.54715 -7.59655 58.1498 -4.52952
107 1 1.48476 -8.91651 -2.24136 -4.53199
108 1 1.25404 -6.1429 0.638758 -4.5449
109 1 3.97722 -8.6124 0.570485 -4.53422
110 1 3.7751 -6.05207 -2.54312 -4.52446
111 1 5.2184 -9.95667 58.2149 -4.56685
112 1 5.11953 -7.16252 -0.898787 -4.52244
113 1 7.20184 -9.84595 -0.622872 -4.43165
114 1 7.6914 -7.56725 58.1592 -4.50279
115 1 6.38772 -8.51869 -2.36692 -4.44965
116 1 6.3666 -6.10615 0.85842 -4.43987
117 1 8.73821 -8.82049 0.996132 -4.52919
118 1 8.98845 -6.28486 -2.3726 -4.52295
119 1 10.1288 -10.1427 -3.34251 -4.42912
120 1 10.0005 -7.33469 -0.494278 -4.48723
121 1 12.5122 -9.51657 -0.0466433 -4.37697
122 1 12.64 -7.45859 -3.64 -4.39158
123 1 11.4137 -8.62516 -1.95276 -4.51756
124 1 11.388 -5.98152 1.04954 -4.50015
125 1 14.104 -8.47496 1.3424 -4.58494
126 1 13.6352 -6.08284 -1.82539 -4.59524
127 1 14.5172 -10.0093 -3.23753 -4.42388
128 1 15.1253 -7.33007 -0.399954 -4.67372
129 1 16.5738 -6.42174 -3.65393 -4.3292
130 1 16.1725 -8.77378 -2.07492 -4.19646
131 1 16.6661 -5.61091 0.260522 -4.48261
132 1 18.3455 -4.89731 -3.68111 -3.81451
133 1 -17.9707 -5.29021 -0.990722 -3.8553
134 1 -17.4981 -2.77792 -3.60184 -4.94988
135 1 -18.7562 -3.06351 -1.46252 -4.28314
136 1 -17.5217 -2.00022 0.304961 -4.58709
137 1 -16.6565 -4.9968 0.989671 -4.54215
138 1 -16.4703 -0.862392 -2.45251 -4.50865
139 1 -15.1428 -5.27775 -3.75979 -4.57208
140 1 -15.516 -2.29194 -0.917719 -4.43555
141 1 -12.8713 -5.03169 -0.819199 -4.46113
142 1 -12.6849 -2.69466 58.0217 -4.52725
143 1 -14.1804 -3.54713 -2.41042 -4.36807
144 1 -14.1145 -1.11581 0.624121 -4.53606
145 1 -11.5056 -3.91886 0.82313 -4.54046
146 1 -11.4862 -1.32407 -2.42812 -4.53768
147 1 -10.0975 -5.23299 -3.81142 -4.51627
148 1 -10.2617 -2.55058 -0.760833 -4.5251
149 1 -7.60364 -4.91738 -0.894641 -4.57132
150 1 -7.62458 -2.47201 -3.78021 -4.51878
151 1 -9.08889 -3.6851 -2.33091 -4.53183
152 1 -9.0119 -1.06157 0.640756 -4.55116
153 1 -6.28475 -3.50962 0.606866 -4.53093
154 1 -6.42084 -1.10773 -2.35909 -4.56425
155 1 -5.12229 -4.83212 58.1949 -4.49902
156 1 -5.03278 -2.19114 -0.873362 -4.51423
157 1 -2.5342 -4.92156 -0.846032 -4.53165
158 1 -2.41569 -2.33486 -3.72175 -4.52575
159 1 -3.90265 -3.58517 -2.32939 -4.57997
160 1 -3.83681 -0.915185 0.882227 -4.48863
161 1 -1.50889 -3.53148 0.764786 -4.51722
162 1 -1.00984 -1.1375 -2.27534 -4.49248
163 1 0.125042 -4.99979 58.2072 -4.55336
164 1 0.127576 -2.37096 -0.669209 -4.46462
165 1 2.55902 -4.9199 -0.94791 -4.50288
166 1 2.60146 -2.25746 58.0013 -4.53049
167 1 1.34208 -3.57541 -2.50717 -4.50073
168 1 1.39974 -1.10959 0.844071 -4.55755
169 1 3.85458 -3.75551 0.65362 -4.49147
170 1 3.75699 -1.30629 -2.26766 -4.54995
171 1 5.20533 -4.94954 58.1691 -4.50085
172 1 5.20725 -2.38792 -0.690021 -4.51025
173 1 7.68139 -4.9401 -0.871338 -4.47295
174 1 7.70775 -2.38646 -3.81033 -4.50615
175 1 6.40047 -3.70196 -2.3377 -4.53536
176 1 6.22832 -1.24874 1.16857 -4.49101
177 1 9.01594 -3.76227 0.901906 -4.42821
178 1 8.70973 -1.00759 -2.0067 -4.42981
179 1 10.2265 -4.81519 58.1774 -4.46537
180 1 10.2392 -2.3688 -0.657077 -4.51364
181 1 12.6849 -4.61386 -0.322363 -4.44215
182 1 12.4504 -2.34669 -3.6557 -4.46603
183 1 11.4191 -3.77013 -2.17812 -4.43077
184 1 11.6558 -1.53313 1.15849 -4.36085
185 1 14.7197 -4.26056 0.634814 -4.38071
186 1 13.4623 -1.16907 -1.85435 -4.41311
187 1 14.8279 -4.7674 -3.38028 -4.59375
188 1 14.9485 -2.17465 -0.252682 -4.42194
189 1 17.8393 -4.28331 -1.45033 -4.59825
190 1 17.2973 -1.83817 -3.75769 -4.66286
191 1 15.9669 -3.12493 -2.27764 -4.66191
192 1 16.3134 -1.21521 1.50591 -4.35042
193 1 18.7958 -2.34287 -0.54398 -4.28784
194 1 18.7946 -0.819189 -2.3132 -3.69711
195 1 -19.5037 -1.43665 -3.12719 -4.32881
196 1 -18.5192 0.108238 0.555135 -4.35122
197 1 -18.0449 2.26534 -3.57163 -4.27057
198 1 -18.4622 0.371534 -1.96007 -4.36487
199 1 -17.863 4.3534 1.88528 -4.08561
200 1 -16.7064 1.43005 1.1514 -4.52607
201 1 -16.6788 3.50213 -1.92706 -4.38412
202 1 -15.185 0.0853078 58.0822 -4.49275
203 1 -15.2479 2.34722 -0.487461 -4.47043
204 1 -12.6777 0.0201657 -0.940675 -4.59918
205 1 -12.6303 2.74731 -3.81132 -4.5392
206 1 -13.9943 1.48661 -2.3379 -4.49827
207 1 -14.1139 3.97913 0.69104 -4.5447
208 1 -11.4759 1.51066 0.411078 -4.53267
209 1 -11.4647 4.16385 -2.36577 -4.57557
210 1 -10.285 0.168469 58.2336 -4.58373
211 1 -10.1343 2.80594 -1.07176 -4.58425
212 1 -7.81748 0.209143 -1.03945 -4.49702
213 1 -7.58346 3.03168 58.1938 -4.51995
214 1 -8.83463 1.59464 -2.54368 -4.56429
215 1 -8.80884 3.98934 0.544817 -4.59238
216 1 -6.62814 1.37409 0.645153 -4.48661
217 1 -6.15167 3.95953 -2.27903 -4.56195
218 1 -5.11624 0.0996845 58.0452 -4.56817
219 1 -5.09483 2.48488 -0.871128 -4.52125
220 1 -2.41977 -0.0105762 -0.753089 -4.49883
221 1 -2.50895 2.78308 -3.82269 -4.54633
222 1 -3.68633 1.1889 -2.44623 -4.51928
223 1 -3.90081 3.85903 0.651485 -4.50916
224 1 -1.29949 1.31008 0.859794 -4.52766
225 1 -1.1947 4.11674 -2.30216 -4.5558
226 1 -0.0165932 0.261798 58.1093 -4.5208
227 1 -0.184186 2.67254 -0.698452 -4.52627
228 1 2.47633 0.128117 -0.889651 -4.51077
229 1 2.56889 2.77641 -3.69671 -4.55844
230 1 1.19178 1.51072 -2.33303 -4.54379
231 1 1.13638 4.00683 0.61972 -4.55754
232 1 3.82086 1.30792 0.883374 -4.50046
233 1 3.83508 4.10467 -2.32972 -4.44365
234 1 5.16909 0.0729812 -3.62645 -4.54648
235 1 5.07943 2.73388 -0.565779 -4.47772
236 1 7.38133 0.0507999 -0.383692 -4.50197
237 1 7.43368 2.87911 -3.72896 -4.50204
238 1 6.37818 1.41563 -2.09198 -4.48894
239 1 6.43915 4.1639 0.964968 -4.52355
240 1 8.90921 1.23372 1.01923 -4.5716
241 1 8.87799 4.16023 -2.22974 -4.46714
242 1 9.9581 0.242198 -3.67363 -4.48587
243 1 9.99525 2.67759 -0.594067 -4.5486
244 1 12.3941 0.198518 -0.356112 -4.47807
245 1 12.3982 2.95306 -3.42381 -4.59797
246 1 11.2714 1.32766 -2.07828 -4.50802
247 1 11.4538 3.94173 0.814107 -4.58193
248 1 13.8475 1.29947 1.09907 -4.46483
249 1 13.8607 4.23556 -2.01071 -4.45525
250 1 14.4956 0.289872 -3.35458 -4.55709
251 1 14.6993 2.45417 -0.745405 -4.47109
252 1 17.568 -0.22246 -0.323458 -4.87379
253 1 17.1419 1.88376 -3.82591 -4.46493
254 1 16.1314 1.09791 -1.87046 -4.33369
255 1 16.1936 3.7999 0.389905 -4.58923
256 1 18.9521 1.03588 1.28329 -4.32928
257 1 18.7272 3.56822 -3.29906 -4.03193
258 1 19.4217 1.38997 57.8825 -3.76505
259 1 -17.6573 5.31061 -0.811335 -4.00869
260 1 -17.4688 7.9707 57.3277 -4.46279
261 1 -17.8361 6.22831 -3.05492 -4.18742
262 1 -16.502 6.94363 0.40022 -4.60434
263 1 -16.4895 9.21952 -2.93839 -3.53234
264 1 -15.8367 4.87864 -3.6391 -5.36079
265 1 -15.2274 8.17461 -1.0938 -4.54701
266 1 -12.9562 5.27773 -0.969726 -4.57639
267 1 -13.0001 7.5656 58.1023 -4.5468
268 1 -14.4206 6.45156 -2.48939 -4.30776
269 1 -14.0707 9.47917 0.537215 -4.44789
270 1 -11.5441 6.51565 0.447246 -4.5499
271 1 -11.5257 8.84973 -2.64224 -4.53083
272 1 -10.1627 5.34968 58.1513 -4.56987
273 1 -10.1776 7.6234 -1.0924 -4.56015
274 1 -7.43013 5.25004 -0.813687 -4.49956
275 1 -7.7443 7.82576 57.9975 -4.49433
276 1 -8.66588 6.42071 -2.50582 -4.52161
277 1 -8.7465 8.83559 0.397065 -4.44828
278 1 -6.16486 6.46657 0.904768 -4.57018
279 1 -6.4828 8.82407 -2.30759 -4.48263
280 1 -4.86342 5.27253 -3.75294 -4.48663
281 1 -5.1007 7.90935 -0.63636 -4.4792
282 1 -2.57944 5.27501 -0.763728 -4.56984
283 1 -2.55291 7.76931 -3.75645 -4.4754
284 1 -3.80007 6.69357 -2.25589 -4.49636
285 1 -3.86352 9.17646 0.885123 -4.51285
286 1 -1.32181 6.60912 0.886146 -4.55749
287 1 -1.32253 9.15742 -2.26008 -4.54641
288 1 0.0919277 5.43408 -3.77905 -4.52038
289 1 0.00486798 7.78323 -0.749253 -4.55354
290 1 2.68116 5.29569 -0.688438 -4.51245
291 1 2.42723 7.99016 -3.80687 -4.45309
292 1 1.52611 6.58851 -2.19027 -4.49724
293 1 1.06854 9.16196 0.733894 -4.52533
294 1 3.81923 6.76978 0.929493 -4.52157
295 1 3.75313 9.16469 -2.4217 -4.41829
296 1 4.95417 5.42647 -3.92563 -4.56486
297 1 4.99733 7.94508 -0.765194 -4.49233
298 1 7.50244 5.45161 -0.680789 -4.54056
299 1 7.2507 7.80682 57.903 -4.48171
300 1 6.23919 6.67902 -2.35339 -4.4479
301 1 6.52186 9.43208 0.5787 -4.39879
302 1 9.0404 6.71526 0.7094 -4.43389
303 1 8.64602 9.01104 -2.6219 -4.60238
304 1 9.82992 5.41987 58.0219 -4.49797
305 1 10.1788 7.90888 -1.23471 -4.33393
306 1 12.5937 5.49642 -0.611174 -4.43964
307 1 12.1489 7.68592 57.8312 -4.48472
308 1 11.372 6.28506 -2.54213 -4.43144
309 1 11.5869 9.30911 1.31161 -4.4208
310 1 14.0227 6.62986 0.853585 -4.5367
311 1 13.4787 8.67764 -2.58876 -4.27621
312 1 14.6435 5.34698 58.0556 -4.47807
313 1 15.6716 8.07784 -0.0598895 -4.4865
314 1 18.0012 4.79829 -0.771395 -4.25705
315 1 16.7104 6.44052 58.066 -4.62335
316 1 16.7699 6.59835 -1.57472 -3.68346
317 1 16.5812 8.65242 2.17072 -4.36807
318 1 18.6018 5.62837 1.41377 -3.65909
319 1 -15.78 13.029 1.73731 -4.21941
320 1 -14.8675 10.7859 58.1748 -4.6743
321 1 -15.0096 13.3039 -0.652119 -4.09093
322 1 -12.5782 10.3337 -1.02224 -4.53646
323 1 -12.526 13.202 58.0848 -4.96226
324 1 -13.7127 11.9659 -2.19627 -4.31763
325 1 -13.4334 13.6358 1.28724 -4.81645
326 1 -11.1714 11.3754 0.62821 -4.42819
327 1 -11.8021 14.566 -2.04321 -4.13172
328 1 -10.4012 10.3199 57.9891 -4.58424
329 1 -10.4708 12.6629 -1.28542 -4.43175
330 1 -7.65055 10.3762 -1.0816 -4.53907
331 1 -7.62124 12.8553 57.5986 -4.36669
332 1 -8.90881 11.4913 -2.72542 -4.43438
333 1 -9.26782 14.0118 0.290968 -4.47217
334 1 -6.49637 11.7449 0.502647 -4.48964
335 1 -6.46872 14.0601 -2.66148 -4.50453
336 1 -5.38583 10.1044 58.0799 -4.54951
337 1 -5.13699 12.888 -1.12277 -4.51805
338 1 -2.71823 10.3571 -0.872931 -4.42431
339 1 -2.68072 12.8052 58.0711 -4.58124
340 1 -3.97127 11.4099 -2.62739 -4.57701
341 1 -3.87309 14.1445 0.508476 -4.3529
342 1 -1.44831 11.84 0.805985 -4.48455
343 1 -1.3618 13.9463 -2.47984 -4.54471
344 1 -0.0847739 10.3976 58.1604 -4.51708
345 1 -0.0340035 12.895 -0.719546 -4.46421
346 1 2.48618 10.3612 -0.723875 -4.53801
347 1 2.38421 12.9308 -3.74398 -4.44154
348 1 1.23561 11.5159 -2.27041 -4.49413
349 1 0.947838 14.1754 1.10308 -4.53475
350 1 3.8014 11.7658 0.695133 -4.56552
351 1 3.70173 14.1234 -2.28256 -4.42556
352 1 4.68465 10.3846 57.7852 -4.44329
353 1 5.24085 13.1155 -0.702797 -4.28236
354 1 7.53661 10.6802 -1.29089 -4.32693
355 1 6.87384 12.7555 57.7173 -4.49379
356 1 5.81441 11.5958 -2.62554 -4.42882
357 1 6.03449 14.3883 1.24246 -4.46537
358 1 8.91238 12.351 1.09765 -4.40457
359 1 7.90307 13.9934 -2.55729 -4.30703
360 1 9.82733 10.1709 57.6699 -4.40507
361 1 9.2591 12.4737 -1.40033 -4.83068
362 1 11.8479 9.56655 -1.16046 -4.87214
363 1 12.3903 12.4807 57.7768 -4.24516
364 1 10.9908 11.3368 -2.64162 -4.73223
365 1 10.7414 13.811 1.30609 -4.55826
366 1 13.3513 10.8407 1.7782 -4.52091
367 1 12.6657 12.9444 -2.01504 -4.31529
368 1 14.8272 9.80459 57.8407 -4.01795
369 1 13.4956 11.2118 -0.572897 -4.42366
370 1 15.1785 10.0228 -1.61309 -4.22444
371 1 -13.5173 15.159 -0.489491 -4.14548
372 1 -12.717 15.8811 1.74039 -4.23173
373 1 -9.47639 15.4326 57.8122 -4.43014
374 1 -8.00193 15.1998 -1.37755 -4.55918
375 1 -8.4376 17.4665 57.5432 -4.4362
376 1 -9.35743 16.8261 -2.39544 -4.44227
377 1 -6.50854 16.0888 0.219126 -4.74947
378 1 -7.55759 18.2753 -2.52322 -3.56565
379 1 -5.36307 15.5123 57.8811 -4.53033
380 1 -5.55085 17.8859 -1.07475 -4.54826
381 1 -2.7908 15.3598 -1.23577 -4.4934
382 1 -2.88144 18.0721 57.8154 -4.51094
383 1 -3.97433 16.7577 -2.61847 -4.44511
384 1 -5.10255 18.8246 1.17746 -3.98186
385 1 -1.73655 16.5326 0.566872 -4.51736
386 1 -1.09239 18.7221 -2.78422 -3.63926
387 1 -0.158734 15.2506 58.115 -4.48435
388 1 -0.329604 17.821 -0.742282 -4.67272
389 1 2.24304 15.1479 -0.569205 -4.4599
390 1 2.31571 17.5627 -3.20071 -4.47687
391 1 0.779802 16.2408 -1.98409 -4.61153
392 1 0.964124 19.1019 0.728296 -4.328
393 1 3.22148 16.6037 1.13182 -4.58335
394 1 2.61736 18.9655 -1.24989 -4.15184
395 1 4.74127 15.5884 58.2633 -4.1904
396 1 4.4939 17.8345 -0.373714 -4.56575
397 1 7.98761 16.1097 -1.26058 -4.86517
398 1 8.48746 17.913 -2.87856 -4.08463
399 1 5.69026 16.4773 -1.82618 -4.22112
400 1 5.4254 19.034 1.42724 -3.77358
401 1 7.86252 15.9868 1.11811 -4.48634
402 1 9.28606 14.9523 57.9524 -4.64412
403 1 10.8631 14.3069 -1.20916 -4.22945
404 1 10.2002 16.2242 -2.42342 -4.2938
405 1 1.02829 19.5353 -3.09343 -4.35832
406 1 -12.5992 -15.7404 1.79216 -4.21775
407 1 -7.59614 -17.501 1.97262 -3.63629
408 1 -8.91355 -16.1739 6.69234 -3.61936
409 1 -6.46535 -18.6126 7.59437 -4.12677
410 1 -6.37247 -16.4812 3.64142 -4.49542
411 1 -5.44068 -17.5672 5.64544 -4.55184
412 1 -2.88286 -18.0203 2.32983 -4.39071
413 1 -3.59764 -18.5579 4.61197 -3.74215
414 1 -3.74335 -16.2874 6.68159 -4.61278
415 1 -1.58248 -18.9312 5.75754 -3.63823
416 1 -1.32131 -16.5703 3.52169 -4.6026
417 1 0.80171 -20.1506 0.375047 -4.15381
418 1 0.257569 -17.9132 4.524 -4.46936
419 1 2.83343 -17.8068 1.63505 -4.46111
420 1 1.08621 -18.9496 2.52575 -4.33938
421 1 1.09819 -16.3958 6.29411 -4.37689
422 1 3.94406 -18.805 7.21563 -4.35904
423 1 3.72323 -16.5198 3.53408 -4.44996
424 1 5.09134 -17.6225 5.18587 -4.48592
425 1 7.73365 -17.7451 1.72574 -4.38374
426 1 6.96331 -18.2385 3.96894 -3.43483
427 1 6.16192 -16.1832 6.72345 -4.4542
428 1 8.64335 -16.5459 3.63801 -4.33438
429 1 12.909 -14.6573 8.01448 -4.53132
430 1 -17.0686 -9.49785 4.28924 -4.23985
431 1 -15.7924 -11.5632 4.01768 -4.09264
432 1 -13.0129 -14.1659 3.57244 -4.08964
433 1 -12.6554 -12.289 1.92147 -4.82709
434 1 -14.8594 -13.2214 2.37405 -4.19409
435 1 -14.405 -11.2656 5.93792 -4.94963
436 1 -11.7584 -13.9752 5.77464 -4.51499
437 1 -11.4937 -11.1359 3.70632 -4.44306
438 1 -10.2084 -15.4872 2.13286 -4.21229
439 1 -10.0917 -12.4666 5.12092 -4.59366
440 1 -7.76427 -15.1542 4.95688 -4.64878
441 1 -7.5009 -12.5396 2.22776 -4.59677
442 1 -9.02214 -13.861 3.387 -4.48783
443 1 -9.35494 -11.1963 6.90466 -4.46057
444 1 -6.5548 -13.8301 6.38421 -4.53386
445 1 -6.41477 -11.0677 3.80466 -4.54559
446 1 -4.88258 -15.1276 2.2184 -4.56553
447 1 -5.08705 -12.5282 5.14578 -4.61795
448 1 -2.36805 -15.154 5.19881 -4.49679
449 1 -2.4146 -12.376 2.43051 -4.43393
450 1 -3.67835 -13.8166 3.66872 -4.587
451 1 -3.9175 -11.2422 6.82594 -4.52967
452 1 -1.42117 -13.5237 6.69404 -4.53878
453 1 -1.38364 -11.0854 3.93169 -4.50164
454 1 -0.0261695 -15.1649 2.23204 -4.55027
455 1 -0.014442 -12.4696 5.18883 -4.54699
456 1 2.59428 -15.0708 5.01966 -4.60164
457 1 2.7026 -12.6807 2.14071 -4.55011
458 1 1.24579 -13.6957 3.60575 -4.57835
459 1 1.25033 -11.316 6.73252 -4.55518
460 1 3.78531 -13.7705 6.62794 -4.51844
461 1 3.72281 -11.2123 3.79536 -4.57609
462 1 5.11954 -15.1804 2.29953 -4.50639
463 1 5.17674 -12.3757 5.34402 -4.57773
464 1 7.69507 -15.0523 5.28684 -4.44853
465 1 7.71845 -12.5963 2.48321 -4.52656
466 1 6.33359 -13.8654 3.89257 -4.60599
467 1 6.40444 -11.2805 6.94226 -4.50106
468 1 9.00377 -13.6787 6.87266 -4.46398
469 1 8.86771 -11.267 4.04237 -4.59965
470 1 10.2331 -15.084 2.56843 -4.42962
471 1 10.4194 -12.4443 5.49967 -4.59404
472 1 13.0495 -14.3622 5.68855 -3.67119
473 1 13.064 -12.4494 2.17408 -4.41383
474 1 11.7671 -13.5598 3.82966 -4.4921
475 1 11.8334 -11 6.78757 -4.47885
476 1 13.2675 -12.3464 8.10057 -4.69119
477 1 14.6219 -11.3171 3.66675 -4.47294
478 1 14.7879 -12.8166 5.49234 -3.68044
479 1 15.5884 -12.4706 7.81912 -4.4595
480 1 -17.7447 -7.73154 2.79847 -4.64781
481 1 -18.7154 -4.76531 8.7455 -4.3379
482 1 -16.6272 -8.70464 6.6275 -4.29064
483 1 -16.4624 -6.27737 4.01706 -4.62786
484 1 -15.2846 -9.76059 2.69914 -4.5782
485 1 -15.0761 -7.29832 5.5344 -4.6726
486 1 -12.5408 -9.70464 5.31829 -4.3921
487 1 -12.4676 -7.37899 2.16246 -4.44969
488 1 -13.791 -8.39593 3.83806 -4.63562
489 1 -13.7342 -6.07561 6.99711 -4.51387
490 1 -11.421 -8.56362 7.00284 -4.3125
491 1 -11.3016 -5.92759 3.75665 -4.53784
492 1 -10.0068 -10.0451 2.33616 -4.55778
493 1 -10.186 -7.20717 5.40957 -4.48272
494 1 -7.84045 -10.0664 5.40022 -4.51643
495 1 -7.36774 -7.54532 2.45058 -4.51242
496 1 -8.91872 -8.64465 3.84961 -4.56048
497 1 -8.75864 -6.10403 6.97657 -4.56464
498 1 -6.47829 -9.00252 6.97032 -4.58421
499 1 -6.09645 -6.17903 3.87892 -4.4987
500 1 -4.90358 -9.89222 2.24291 -4.5056
501 1 -5.14549 -7.55852 5.65178 -4.48697
502 1 -2.67912 -9.81983 5.38822 -4.56106
503 1 -2.50055 -7.40088 2.32482 -4.48906
504 1 -3.92268 -8.52234 3.93685 -4.47425
505 1 -3.88877 -6.09068 7.01223 -4.57617
506 1 -1.30162 -8.64048 6.81679 -4.55533
507 1 -1.122 -6.02406 3.90286 -4.50198
508 1 0.0455529 -10.0563 2.26319 -4.53913
509 1 0.133028 -7.3722 5.30467 -4.50788
510 1 2.48228 -9.81931 5.33956 -4.54688
511 1 2.61648 -7.32044 2.10329 -4.54517
512 1 1.31289 -8.57155 3.60096 -4.53477
513 1 1.26168 -6.12645 6.99567 -4.47975
514 1 3.88314 -8.64048 6.89557 -4.54108
515 1 3.77564 -6.04859 3.75931 -4.53567
516 1 5.07265 -9.79987 2.39118 -4.54657
517 1 5.11721 -7.18996 5.39232 -4.52183
518 1 7.62146 -9.95273 5.51862 -4.5638
519 1 7.63841 -7.46695 2.48796 -4.48523
520 1 6.36236 -8.63674 3.91756 -4.53057
521 1 6.44273 -6.12787 7.16139 -4.58719
522 1 9.24325 -8.77479 6.83304 -4.45441
523 1 8.94968 -6.40133 4.12454 -4.49962
524 1 10.1768 -9.95148 2.47844 -4.58468
525 1 10.668 -7.46151 5.52734 -4.52212
526 1 13.2486 -9.89529 5.22965 -4.46323
527 1 12.7465 -7.06784 2.54043 -4.46087
528 1 11.7308 -8.71146 3.77861 -4.57023
529 1 11.7712 -6.30617 7.33881 -4.56224
530 1 14.3491 -8.73004 7.07624 -4.48907
531 1 13.7994 -6.28171 4.52152 -4.34528
532 1 15.8374 -9.85652 2.11318 -4.36005
533 1 15.7148 -7.23697 5.73651 -4.56259
534 1 16.6131 -5.92571 2.62848 -4.46228
535 1 16.5149 -8.21006 3.64758 -3.48157
536 1 16.7379 -6.03547 7.57181 -3.99798
537 1 18.1987 -4.48239 3.58709 -4.36209
538 1 -17.925 -5.20924 5.52617 -4.55317
539 1 -17.1156 -3.10742 2.32339 -4.29459
540 1 -18.859 -4.15103 3.53963 -4.50781
541 1 -19.1771 -1.97909 4.43669 -3.75432
542 1 -16.5344 -3.58551 6.50102 -4.56955
543 1 -16.9309 -1.15396 3.67972 -5.30702
544 1 -14.9851 -5.51698 2.42814 -4.32655
545 1 -15.2784 -2.20359 5.038 -4.24765
546 1 -12.7171 -4.70892 5.32957 -4.48654
547 1 -12.6757 -2.3778 2.17028 -4.58971
548 1 -14.1091 -3.6204 3.59732 -4.5339
549 1 -13.7787 -1.3232 6.76811 -4.3159
550 1 -11.3353 -3.53193 6.9506 -4.50941
551 1 -11.364 -1.12598 3.6768 -4.4877
552 1 -9.86332 -4.76826 2.32381 -4.53822
553 1 -10.1 -2.22476 5.34117 -4.52051
554 1 -7.37287 -4.87325 5.43599 -4.52032
555 1 -7.62611 -2.35325 2.12655 -4.5024
556 1 -8.66446 -3.50348 3.94769 -4.50823
557 1 -8.76497 -1.0337 6.93563 -4.48538
558 1 -6.35379 -3.60815 7.04933 -4.5066
559 1 -6.47885 -1.03802 3.79434 -4.55535
560 1 -5.00754 -4.69634 2.30837 -4.49544
561 1 -5.31268 -2.31245 5.37791 -4.47404
562 1 -2.46212 -4.94426 5.44048 -4.49637
563 1 -2.53539 -2.20181 2.38081 -4.524
564 1 -3.74676 -3.48876 3.96248 -4.56576
565 1 -3.85226 -1.03949 6.95095 -4.54699
566 1 -1.28989 -3.61155 7.09325 -4.54051
567 1 -1.2123 -1.00416 3.92011 -4.54983
568 1 -0.0577054 -4.81818 2.14429 -4.52595
569 1 -0.0876219 -2.34838 5.47391 -4.51201
570 1 2.42135 -4.89158 5.33589 -4.5175
571 1 2.81823 -2.45936 2.22622 -4.4574
572 1 1.25431 -3.48401 3.79653 -4.48941
573 1 1.39635 -1.26973 6.91659 -4.52091
574 1 3.78361 -3.84083 6.9694 -4.53231
575 1 3.7142 -1.23495 3.99884 -4.53661
576 1 5.16583 -4.81017 2.33681 -4.47047
577 1 5.11714 -2.45626 5.5275 -4.58258
578 1 7.8527 -4.93921 5.70054 -4.52027
579 1 7.62725 -2.59084 2.46808 -4.5074
580 1 6.54493 -3.83552 4.17826 -4.46113
581 1 6.32135 -1.17148 7.14242 -4.51763
582 1 8.90855 -3.49074 7.3147 -4.56244
583 1 8.79925 -1.14837 4.1015 -4.4862
584 1 10.0585 -4.92037 2.65106 -4.49096
585 1 10.1011 -2.21057 5.80149 -4.53297
586 1 12.872 -4.75534 5.95578 -4.54991
587 1 12.908 -2.80839 2.86837 -4.31179
588 1 11.4114 -3.76105 4.35592 -4.53403
589 1 11.3694 -0.977242 7.38245 -4.55935
590 1 14.1239 -3.36068 7.50653 -4.53831
591 1 13.7567 -1.16991 4.42636 -4.58624
592 1 14.6501 -4.47735 3.06297 -5.01973
593 1 15.343 -1.96417 6.13182 -4.48129
594 1 17.3241 -4.59143 5.85689 -3.57035
595 1 18.2961 -2.50809 1.83734 -4.2297
596 1 16.2345 -3.17387 4.27677 -4.42463
597 1 16.7098 -0.0173045 6.8547 -4.33177
598 1 18.6994 -0.813005 7.8274 -4.41917
599 1 19.2789 -0.597796 2.97432 -4.28658
600 1 -19.041 -0.135842 2.95473 -4.09506
601 1 -17.4892 0.282964 5.70903 -4.48346
602 1 -17.1871 2.56507 3.10914 -4.67164
603 1 -18.9057 1.73716 4.43354 -4.53082
604 1 -18.3886 3.32934 6.03885 -4.52497
605 1 -16.1179 1.39429 7.23479 -4.61544
606 1 -16.5335 4.08188 4.73126 -4.50938
607 1 -15.278 0.117638 2.33906 -4.37613
608 1 -14.9652 2.54657 5.43009 -4.52645
609 1 -12.7153 0.132186 5.33344 -4.49161
610 1 -12.6918 2.69604 2.12798 -4.53287
611 1 -13.8023 1.37626 3.69167 -4.4563
612 1 -13.6105 4.00304 6.59621 -4.50809
613 1 -11.4562 1.29667 6.91135 -4.5302
614 1 -11.3756 3.97541 3.53231 -4.5521
615 1 -10.311 0.322906 2.10013 -4.528
616 1 -10.3832 2.72492 5.25505 -4.46186
617 1 -7.72082 0.365153 5.25533 -4.51737
618 1 -7.73513 2.70348 2.26608 -4.49677
619 1 -9.13208 1.53841 3.72564 -4.51944
620 1 -8.97558 4.0397 6.7695 -4.53064
621 1 -6.29646 1.43544 6.73394 -4.47005
622 1 -6.31905 3.9891 3.76332 -4.55872
623 1 -5.25225 0.38781 2.26653 -4.50124
624 1 -5.11453 2.91221 5.41879 -4.56546
625 1 -2.54506 0.288856 5.47225 -4.55651
626 1 -2.74138 2.67762 2.31609 -4.50507
627 1 -3.92047 1.40977 3.95776 -4.52021
628 1 -3.92434 4.07723 7.07607 -4.52198
629 1 -1.24008 1.51534 6.99741 -4.54108
630 1 -1.39262 4.10457 3.86583 -4.45269
631 1 0.118229 0.268095 2.3958 -4.54888
632 1 -0.074342 2.88582 5.42207 -4.55335
633 1 2.43918 0.269711 5.43278 -4.55949
634 1 2.44212 2.73461 2.19643 -4.53096
635 1 1.28168 1.68263 3.90248 -4.51766
636 1 1.33042 4.10232 6.99264 -4.52736
637 1 3.82416 1.46667 6.86339 -4.52372
638 1 3.55804 4.12655 3.76119 -4.5001
639 1 5.04138 0.175475 2.57085 -4.55721
640 1 5.02927 2.95593 5.35173 -4.53908
641 1 7.7216 0.19956 5.60805 -4.50282
642 1 7.72549 2.78087 2.44528 -4.56778
643 1 6.40394 1.54871 4.05331 -4.58532
644 1 6.35048 4.15899 7.00024 -4.53047
645 1 8.81277 1.68405 7.07426 -4.52924
646 1 8.91704 4.11703 4.0205 -4.50981
647 1 10.2451 -0.0507549 2.51127 -4.55479
648 1 10.2062 2.88881 5.56909 -4.48584
649 1 12.4552 0.27712 5.62561 -4.52761
650 1 12.6713 2.81834 2.54056 -4.59213
651 1 11.324 1.5639 3.9933 -4.50785
652 1 11.3246 4.03739 7.24907 -4.50037
653 1 13.846 1.46864 7.17992 -4.54003
654 1 13.9957 4.21449 3.94015 -4.45234
655 1 14.8673 0.0897402 2.83135 -4.52059
656 1 15.021 2.86477 5.68246 -4.49446
657 1 17.8939 0.193582 4.8019 -4.56636
658 1 17.1502 2.40176 2.02789 -4.70317
659 1 16.2525 1.59654 4.00947 -4.61338
660 1 16.5909 3.88444 7.07444 -4.38664
661 1 19.3422 1.9291 5.4886 -4.4659
662 1 18.8058 3.76304 2.90325 -4.62122
663 1 20.2326 1.81501 3.23151 -4.14876
664 1 -18.978 5.70333 6.0917 -4.34214
665 1 -17.4811 7.71345 2.48592 -3.51324
666 1 -17.9748 5.79331 3.79697 -4.37132
667 1 -16.7454 6.62729 6.58345 -4.59946
668 1 -16.849 9.70766 3.89445 -4.48892
669 1 -15.625 5.38166 1.86596 -4.60435
670 1 -15.5127 8.00418 5.02743 -4.48406
671 1 -12.7613 5.31246 4.82895 -4.47221
672 1 -12.9641 7.77211 1.94477 -4.55455
673 1 -14.3492 6.59879 3.51308 -4.42479
674 1 -14.0029 8.8473 6.54454 -4.64639
675 1 -11.3124 6.20972 6.48093 -4.50035
676 1 -11.5005 8.85041 3.47224 -4.54308
677 1 -10.1029 5.34208 1.92584 -4.49981
678 1 -10.19 7.64569 5.04976 -4.56499
679 1 -7.51791 5.42743 5.27946 -4.48567
680 1 -7.3826 7.91762 2.33915 -4.48663
681 1 -8.67227 6.42271 3.62935 -4.53459
682 1 -8.93941 8.92066 6.66671 -4.52773
683 1 -6.16899 6.76223 6.63939 -4.48512
684 1 -6.15719 9.21865 3.78978 -4.57183
685 1 -4.79846 5.26493 2.42671 -4.53471
686 1 -4.75945 7.99783 5.23437 -4.53612
687 1 -2.44852 5.12819 5.63968 -4.45992
688 1 -2.49081 7.95311 2.36358 -4.52588
689 1 -3.48729 6.53197 3.9601 -4.52597
690 1 -3.6946 9.08491 6.97608 -4.51817
691 1 -1.14057 6.43736 7.16116 -4.53552
692 1 -1.15141 9.1273 3.93997 -4.54527
693 1 0.0402294 5.3051 2.33378 -4.54114
694 1 0.0625853 7.73995 5.41138 -4.4491
695 1 2.61917 5.41121 5.45028 -4.48774
696 1 2.419 7.99905 2.27721 -4.55664
697 1 1.3349 6.54988 3.82562 -4.53243
698 1 1.10166 9.24748 7.10157 -4.51764
699 1 3.85431 6.81312 6.89514 -4.52078
700 1 3.79509 9.15573 3.90079 -4.49905
701 1 5.10628 5.41071 2.47375 -4.599
702 1 5.24015 7.9877 5.33975 -4.44155
703 1 7.72364 5.47477 5.60426 -4.5448
704 1 7.58809 8.01658 2.11905 -4.44646
705 1 6.5071 6.6313 3.86337 -4.50538
706 1 6.67715 9.3037 7.10941 -4.25197
707 1 9.16085 6.85867 6.9548 -4.41493
708 1 8.63776 9.35628 3.86076 -4.5993
709 1 10.0405 5.2141 2.29347 -4.49916
710 1 10.0905 8.15619 5.19945 -4.31881
711 1 12.5741 5.2271 5.58971 -4.40909
712 1 12.589 7.46288 2.53468 -4.4536
713 1 11.24 6.389 3.99042 -4.53703
714 1 11.7835 9.63575 8.38734 -4.44425
715 1 13.7465 6.60968 7.34934 -4.33943
716 1 13.6315 8.45926 4.38119 -4.27759
717 1 15.3586 5.15133 2.25104 -4.4756
718 1 15.17 8.10051 6.2568 -4.74819
719 1 18.0326 3.9996 5.16395 -4.33109
720 1 18.5869 7.44847 2.84653 -4.43557
721 1 16.3531 6.86764 3.60378 -4.42133
722 1 16.7334 9.45328 7.52732 -4.09362
723 1 18.3593 6.31732 4.87671 -4.29581
724 1 -16.2086 11.2954 5.48948 -3.72432
725 1 -15.733 10.6827 1.91428 -4.45092
726 1 -15.1 12.8764 4.07829 -4.50282
727 1 -12.5793 10.0184 5.1999 -4.42498
728 1 -12.2326 12.1458 2.62249 -4.05139
729 1 -13.9551 10.8757 3.56918 -4.63989
730 1 -13.1746 13.8846 5.19652 -4.10099
731 1 -11.263 11.4461 6.51506 -4.57847
732 1 -11.1893 14.1047 3.88781 -5.45596
733 1 -9.898 9.98669 2.10568 -4.53203
734 1 -9.77905 12.6744 5.22933 -4.40688
735 1 -7.50801 10.3166 5.3122 -4.5375
736 1 -7.8176 13.1812 1.98391 -4.47776
737 1 -8.59951 11.4672 3.52745 -4.50352
738 1 -8.31271 13.9994 6.51156 -4.60588
739 1 -6.01916 11.6098 6.79463 -4.44062
740 1 -6.18871 14.2789 3.34035 -4.61242
741 1 -5.10102 10.7407 2.30003 -4.49647