ITEM: TIMESTEP
98000
ITEM: NUMBER OF ATOMS
4050
ITEM: BOX BOUNDS ss ss pp
-2.1059879992282521e+01 2.0923656369736907e+01
-2.1539737840970908e+01 2.1015970807006056e+01
-1.3305950000000002e+00 5.5640595000000005e+01
ITEM: ATOMS id type x y z c_peratom
1 1 -12.1831 -15.8651 0.919784 -4.28029
2 1 -7.87105 -18.4437 -0.426006 -4.28814
3 1 -9.04558 -17.5947 2.86562 -4.61595
4 1 -7.39559 -19.2637 2.40187 -3.88403
5 1 -6.60376 -16.696 0.347723 -4.72872
6 1 -5.33431 -18.2271 1.54321 -4.6983
7 1 -2.84662 -18.7484 -1.25618 -4.55509
8 1 -5.03491 -19.3448 -0.531182 -3.89841
9 1 -3.69211 -17.2496 3.04921 -4.41359
10 1 -0.71673 -19.7804 3.74423 -4.30496
11 1 -1.5449 -17.1435 0.0521002 -4.50648
12 1 0.378366 -19.9448 0.556604 -4.51252
13 1 -0.410993 -18.1892 1.86179 -4.58729
14 1 3.40102 -17.8735 55.5977 -4.69522
15 1 2.55411 -19.3699 0.160258 -3.81118
16 1 1.3215 -16.8042 2.78276 -4.53606
17 1 3.48339 -19.4953 2.31693 -4.32172
18 1 4.33642 -16.5171 0.272348 -4.64062
19 1 5.62736 -18.2313 1.45243 -4.34367
20 1 7.09026 -18.4241 -0.57332 -4.06627
21 1 10.0152 -17.8893 2.25913 -3.85583
22 1 6.55932 -16.7926 3.16296 -4.62498
23 1 9.05496 -16.9888 0.152638 -4.43476
24 1 11.9943 -16.7308 2.61201 -3.61587
25 1 -15.1127 -13.1811 0.735151 -4.10883
26 1 -15.8402 -14.5961 2.5983 -4.24705
27 1 -14.0994 -16.2545 2.35166 -3.90214
28 1 -12.5478 -13.2974 55.6179 -4.677
29 1 -13.8493 -14.9122 -0.261371 -4.07967
30 1 -14.4186 -12.6829 3.07034 -4.71957
31 1 -11.2525 -15.0303 3.04013 -4.87947
32 1 -11.5762 -11.9591 0.401829 -4.48401
33 1 -10.5585 -16.0189 -0.936673 -4.43588
34 1 -10.283 -13.2631 1.69864 -4.35601
35 1 -7.95433 -15.7272 1.99556 -4.58638
36 1 -7.81656 -13.2346 -1.14887 -4.57276
37 1 -9.18806 -14.6448 0.265721 -4.58431
38 1 -8.96447 -11.9378 3.10019 -4.56206
39 1 -6.42092 -14.6457 3.296 -4.56133
40 1 -6.57355 -11.7839 0.303513 -4.60365
41 1 -5.07668 -15.801 55.7934 -4.52106
42 1 -5.38685 -13.1258 1.8335 -4.58496
43 1 -2.57918 -15.708 1.55908 -4.53372
44 1 -2.66187 -13.0014 55.7445 -4.54608
45 1 -4.04069 -14.3606 0.260004 -4.62078
46 1 -3.8648 -11.7846 3.08005 -4.60422
47 1 -1.47656 -14.3556 3.12562 -4.5643
48 1 -1.46274 -11.6356 0.229334 -4.63609
49 1 0.0301693 -16.0517 -1.26748 -4.51377
50 1 -0.093463 -13.0034 1.60568 -4.59247
51 1 2.6123 -15.5325 1.52006 -4.48093
52 1 2.68121 -13.2167 -1.4519 -4.60297
53 1 1.15368 -14.3364 0.0198891 -4.57993
54 1 1.31474 -11.5272 2.90625 -4.53996
55 1 3.83268 -14.1688 3.13877 -4.55713
56 1 3.984 -11.7803 -0.0297757 -4.58674
57 1 5.51553 -15.4183 55.5533 -4.44918
58 1 5.11102 -12.9872 1.62307 -4.56918
59 1 7.84591 -15.4971 1.60776 -4.66524
60 1 8.19653 -13.0796 55.6429 -4.59317
61 1 6.68394 -14.051 0.167244 -4.53659
62 1 6.36484 -11.5146 2.9336 -4.55841
63 1 9.07672 -14.375 3.26688 -4.51152
64 1 9.42446 -11.6416 0.196793 -4.52223
65 1 10.7369 -15.8731 55.7401 -4.40596
66 1 10.23 -13.0261 1.86798 -4.4719
67 1 13.2483 -15.5335 1.02772 -4.58161
68 1 12.7811 -12.6569 -0.637134 -4.15374
69 1 11.4489 -14.2396 0.326135 -4.64886
70 1 11.5712 -11.5687 3.11274 -4.62852
71 1 14.3746 -13.7534 2.2417 -4.12336
72 1 14.4621 -11.7748 0.826963 -5.43822
73 1 16.2252 -13.4354 0.862779 -4.0655
74 1 16.6149 -11.2069 1.85198 -4.12269
75 1 -18.1286 -7.9143 55.075 -4.01215
76 1 -18.7174 -6.08979 3.80817 -4.15741
77 1 -17.2361 -9.1084 3.56667 -3.60134
78 1 -17.2223 -6.81482 0.0473381 -4.45855
79 1 -15.7443 -11.2716 -0.895327 -4.20586
80 1 -16.0059 -8.16336 1.65931 -4.62029
81 1 -13.1892 -10.8408 1.76297 -4.33417
82 1 -13.4518 -8.13995 -1.3056 -4.54028
83 1 -14.6858 -9.6073 0.312286 -4.57388
84 1 -14.5234 -6.72636 2.83286 -4.45878
85 1 -11.821 -9.32503 2.94519 -4.56962
86 1 -11.9843 -6.83777 0.0060201 -4.57088
87 1 -10.5208 -10.6979 -1.33182 -4.57875
88 1 -10.6675 -7.91363 1.58812 -4.53306
89 1 -7.99674 -10.4411 1.60749 -4.6057
90 1 -7.90214 -8.06249 -1.16475 -4.57783
91 1 -9.33486 -9.28117 0.0760251 -4.58295
92 1 -9.21463 -6.73583 2.92337 -4.55906
93 1 -6.50504 -9.0625 2.98996 -4.55516
94 1 -6.57837 -6.57809 0.136849 -4.6187
95 1 -5.24284 -10.52 -1.15629 -4.57539
96 1 -5.14941 -7.77461 1.55149 -4.59346
97 1 -2.77951 -10.2685 1.60545 -4.58374
98 1 -2.47968 -7.69395 -1.23644 -4.57686
99 1 -3.90675 -9.02505 -0.00790302 -4.60589
100 1 -3.89983 -6.35866 2.87694 -4.58468
101 1 -1.43867 -8.73877 2.8381 -4.60116
102 1 -1.27333 -6.2839 0.243487 -4.59414
103 1 0.0104448 -10.6475 -1.29435 -4.57258
104 1 0.115767 -7.56543 1.47987 -4.54306
105 1 2.69667 -10.4653 1.41181 -4.59257
106 1 2.57114 -8.02296 -1.47489 -4.61092
107 1 1.21043 -9.14945 0.162318 -4.58587
108 1 1.2643 -6.29592 3.105 -4.60154
109 1 3.98197 -9.0256 2.65383 -4.56668
110 1 3.68532 -6.45139 -0.189299 -4.55741
111 1 5.40415 -10.4111 55.5945 -4.59123
112 1 5.20272 -7.61566 1.25248 -4.58008
113 1 7.92752 -10.3928 1.48107 -4.59199
114 1 8.00652 -7.8153 -1.46071 -4.57746
115 1 6.58597 -9.07519 0.0517778 -4.58812
116 1 6.44234 -6.32161 2.86366 -4.56528
117 1 9.08995 -9.00257 2.9693 -4.61322
118 1 9.3342 -6.47175 0.0674868 -4.60178
119 1 10.5711 -10.2637 55.6822 -4.58515
120 1 10.4957 -7.71511 1.61522 -4.57765
121 1 12.8572 -10.218 1.79031 -4.37823
122 1 13.3244 -7.94201 55.5264 -4.55103
123 1 11.848 -8.92428 0.133454 -4.57734
124 1 11.8387 -6.3102 2.87061 -4.58199
125 1 14.5297 -8.96733 2.92031 -4.66159
126 1 14.4396 -6.43636 0.0429136 -4.54881
127 1 15.394 -10.9174 -1.32952 -4.32978
128 1 15.75 -7.84804 1.26243 -4.59958
129 1 18.0547 -8.31703 55.3921 -3.55002
130 1 16.8481 -9.59415 0.0530733 -4.58287
131 1 16.9792 -6.08199 2.38322 -4.59065
132 1 18.864 -6.19629 -1.19794 -3.43192
133 1 -18.2585 -5.26301 1.54466 -4.43636
134 1 -18.2336 -2.51127 -0.915809 -4.85624
135 1 -19.7183 -3.39432 0.919779 -4.23346
136 1 -18.7738 -1.83713 2.40816 -4.46492
137 1 -16.4799 -4.14606 2.66562 -4.37549
138 1 -17.1767 -1.00633 0.528121 -4.78202
139 1 -15.9472 -5.41657 -1.30888 -4.6363
140 1 -15.4818 -2.48168 1.20527 -4.30275
141 1 -13.0186 -5.42221 1.43688 -4.53232
142 1 -13.2329 -2.80505 55.5188 -4.61531
143 1 -14.4448 -4.16136 -0.0239742 -4.54929
144 1 -14.6465 -1.30954 3.0625 -4.58426
145 1 -11.8476 -3.88119 2.93903 -4.58937
146 1 -12.2146 -1.322 0.0642568 -4.57974
147 1 -10.6288 -5.44611 55.6613 -4.60197
148 1 -10.6857 -2.45773 1.3735 -4.51724
149 1 -7.97215 -5.30042 1.52361 -4.61086
150 1 -8.07821 -2.6309 55.7576 -4.57258
151 1 -9.44788 -4.15479 0.183657 -4.51588
152 1 -9.27927 -1.09826 3.02351 -4.5487
153 1 -6.55362 -3.91047 2.93662 -4.57778
154 1 -6.78783 -1.13097 -0.0159637 -4.60221
155 1 -5.38822 -5.15875 -1.41321 -4.60861
156 1 -5.44332 -2.5857 1.39276 -4.5816
157 1 -2.69279 -4.87014 1.5445 -4.57451
158 1 -2.61661 -2.39602 -1.47511 -4.61953
159 1 -4.00472 -3.77705 -0.0591922 -4.60677
160 1 -4.16121 -1.24256 2.87343 -4.51633
161 1 -1.29025 -3.60616 3.01375 -4.5769
162 1 -1.33908 -0.99927 -0.0384274 -4.61335
163 1 0.0474393 -5.055 -1.23797 -4.56847
164 1 -0.0308562 -2.36554 1.51252 -4.57554
165 1 2.6049 -5.09586 1.50588 -4.56877
166 1 2.66338 -2.46944 -1.33764 -4.57804
167 1 1.31301 -3.73717 0.128539 -4.62328
168 1 1.16188 -1.03376 2.99344 -4.61022
169 1 3.88462 -3.67077 2.98162 -4.61216
170 1 3.93569 -1.15371 0.234788 -4.56191
171 1 5.36342 -5.20264 -1.45643 -4.57231
172 1 5.27606 -2.43659 1.53214 -4.5982
173 1 7.95561 -5.14537 1.50251 -4.63236
174 1 7.95803 -2.59267 55.6428 -4.5653
175 1 6.60126 -3.8052 0.133586 -4.57508
176 1 6.67811 -0.96682 2.85713 -4.58785
177 1 9.31648 -3.81834 2.89223 -4.59377
178 1 9.19837 -1.14319 -0.0140357 -4.56968
179 1 10.6852 -5.18598 55.6762 -4.57006
180 1 10.6362 -2.42571 1.42515 -4.59918
181 1 13.3802 -5.0908 1.51882 -4.53138
182 1 13.1246 -2.44865 55.8328 -4.54268
183 1 11.8904 -3.8794 0.19391 -4.60725
184 1 11.9324 -1.02849 2.83089 -4.53492
185 1 14.4855 -3.68122 2.97264 -4.60057
186 1 14.4616 -1.13593 0.0883569 -4.49791
187 1 15.8342 -5.17357 55.6558 -4.3872
188 1 15.9259 -2.29765 1.60348 -4.52581
189 1 18.7604 -4.95223 1.01979 -4.52575
190 1 18.2541 -2.36748 55.4334 -4.72874
191 1 17.1265 -3.6104 0.0807624 -4.6875
192 1 17.2868 -1.10562 3.00824 -4.58382
193 1 19.6474 -2.79391 1.48935 -3.54178
194 1 19.7379 -1.04651 -0.335587 -4.14734
195 1 -20.279 -1.34166 -0.383303 -4.32823
196 1 -19.5049 0.319094 2.81761 -4.37276
197 1 -18.3606 2.58536 -0.817748 -4.2913
198 1 -19.0598 0.55071 0.426379 -4.2357
199 1 -19.3887 4.45602 3.86113 -3.60114
200 1 -17.4575 1.2838 3.16197 -4.56841
201 1 -17.3057 3.9581 0.836354 -4.33494
202 1 -16.0124 -0.0738139 -1.30853 -4.3694
203 1 -15.8985 2.4357 1.83016 -4.50904
204 1 -13.2628 0.0234438 1.69519 -4.60427
205 1 -13.4667 2.71428 55.8117 -4.58833
206 1 -14.7073 1.23504 0.247627 -4.5614
207 1 -14.7882 4.02192 3.16863 -4.557
208 1 -11.8134 1.33098 3.05669 -4.5942
209 1 -12.1275 4.18288 0.26516 -4.5255
210 1 -10.8759 0.120244 -1.23426 -4.61454
211 1 -10.5983 2.68006 1.51347 -4.56816
212 1 -7.94552 0.210258 1.57771 -4.5855
213 1 -8.05508 2.71725 55.7547 -4.56501
214 1 -9.41475 1.36165 0.0896492 -4.57168
215 1 -9.2039 3.8782 2.98181 -4.51631
216 1 -6.59254 1.50075 2.93621 -4.60274
217 1 -6.71224 4.26938 0.126501 -4.59311
218 1 -5.31281 0.210208 -1.26002 -4.59245
219 1 -5.32461 3.00022 1.53265 -4.6022
220 1 -2.72776 0.173046 1.51803 -4.5839
221 1 -2.59674 2.82387 55.8299 -4.57517
222 1 -4.0458 1.49052 0.198228 -4.60697
223 1 -3.7702 4.06428 2.86646 -4.5642
224 1 -1.35172 1.37924 3.05703 -4.56631
225 1 -1.12969 4.16252 0.0495902 -4.57388
226 1 0.215006 0.406296 -1.16953 -4.57307
227 1 -0.162487 2.73215 1.57571 -4.59136
228 1 2.77786 0.254736 1.85453 -4.57983
229 1 2.84443 2.76799 55.9392 -4.58085
230 1 1.42547 1.51039 0.419284 -4.57678
231 1 1.12169 4.06497 3.02166 -4.57614
232 1 3.9411 1.71465 3.26983 -4.5987
233 1 4.00699 4.37691 0.248715 -4.59049
234 1 5.38511 0.0265534 55.7956 -4.59415
235 1 5.32322 2.94097 1.70441 -4.59895
236 1 7.98341 0.339567 1.52155 -4.60482
237 1 7.98721 2.79557 55.7237 -4.56581
238 1 6.49034 1.64889 0.196529 -4.57944
239 1 6.87099 4.2385 2.96217 -4.57859
240 1 9.39532 1.64616 2.89091 -4.59786
241 1 9.11174 4.40749 0.0569211 -4.61785
242 1 10.3964 0.170732 -1.61522 -4.64339
243 1 10.5546 3.02287 1.31931 -4.59141
244 1 13.0661 0.256498 1.16367 -4.5743
245 1 13.2312 3.0105 55.2987 -4.61018
246 1 11.7041 1.63621 -0.313426 -4.54417
247 1 11.7211 4.46882 2.81552 -4.56249
248 1 14.189 1.66308 2.677 -4.58343
249 1 14.5553 4.34187 -0.151734 -4.39723
250 1 15.5185 0.518016 55.752 -4.53565
251 1 15.6641 2.99894 1.39759 -4.45342
252 1 18.5882 0.136881 1.45174 -4.51859
253 1 18.0844 2.22328 55.1955 -4.53317
254 1 17.1347 1.55654 0.216465 -4.56562
255 1 17.1041 4.28518 2.69836 -4.85407
256 1 19.8955 1.21606 3.21007 -4.34146
257 1 19.8391 3.73542 -1.16624 -4.30871
258 1 20.2736 1.39456 55.3135 -3.89704
259 1 -18.7547 5.50476 1.79704 -4.4294
260 1 -18.1112 8.22958 54.7608 -4.4719
261 1 -18.7512 6.45885 -0.673685 -4.09506
262 1 -17.264 6.89599 2.94577 -4.65492
263 1 -17.1166 9.27821 -0.282226 -3.5419
264 1 -16.6443 5.3503 -1.2088 -5.33312
265 1 -16.0282 8.21835 1.50921 -4.62604
266 1 -13.7959 5.31562 1.57282 -4.48728
267 1 -13.5385 8.02439 -1.48385 -4.51248
268 1 -14.9563 6.68838 0.081377 -4.32004
269 1 -14.4157 9.35801 2.89055 -4.57443
270 1 -12.1878 6.6208 2.95917 -4.56294
271 1 -12.0665 9.06393 0.12918 -4.60094
272 1 -10.8378 5.09744 55.4931 -4.56091
273 1 -10.6995 7.7588 1.53438 -4.56871
274 1 -8.15551 5.3655 1.5463 -4.59195
275 1 -8.02958 7.90964 55.5616 -4.6051
276 1 -9.47431 6.52175 -0.166448 -4.56367
277 1 -9.04313 9.10665 2.62075 -4.56806
278 1 -6.48634 6.542 2.71795 -4.57559
279 1 -6.58367 9.38634 -0.250836 -4.57153
280 1 -5.27028 5.42867 55.6933 -4.58893
281 1 -5.24049 7.9734 1.16319 -4.5864
282 1 -2.4025 5.4804 1.58674 -4.56748
283 1 -2.52057 8.11686 55.5342 -4.59463
284 1 -3.70257 6.73416 -0.0649313 -4.58742
285 1 -3.96402 9.18481 2.73211 -4.60565
286 1 -1.08037 6.87233 2.81773 -4.55559
287 1 -1.20866 9.40059 0.114284 -4.62799
288 1 0.321131 5.32597 -1.3024 -4.57858
289 1 0.289805 8.2876 1.54546 -4.57024
290 1 2.59077 5.55609 1.72595 -4.57352
291 1 2.70079 8.1292 -1.48368 -4.60272
292 1 1.46321 6.86 0.0702759 -4.59104
293 1 1.60089 9.5955 2.98738 -4.59567
294 1 4.15354 6.91192 2.85686 -4.59474
295 1 4.11976 9.50931 -0.158995 -4.5653
296 1 5.45883 5.38176 -1.40054 -4.56229
297 1 5.529 8.27331 1.42693 -4.55273
298 1 7.91494 5.7677 1.53975 -4.56184
299 1 8.10125 8.36446 55.561 -4.57888
300 1 6.75038 6.95277 -0.107794 -4.59462
301 1 6.68734 9.58493 3.07154 -4.55756
302 1 9.33867 7.3065 2.71099 -4.51297
303 1 9.47185 9.76701 -0.0745923 -4.5135
304 1 10.4456 5.64417 55.5215 -4.57087
305 1 10.8944 8.49507 1.32162 -4.38421
306 1 13.1541 5.5324 1.34083 -4.57997
307 1 13.033 8.03691 55.1205 -4.34168
308 1 11.813 6.93496 -0.135494 -4.54778
309 1 12.241 10.0528 2.63035 -4.87302
310 1 14.4994 7.21287 2.47363 -4.53001
311 1 14.5111 9.18185 -0.560953 -4.43425
312 1 16.0855 6.03967 55.8535 -4.77437
313 1 16.5622 8.13749 1.58461 -4.38838
314 1 18.6536 4.52679 0.840145 -4.066
315 1 18.0314 7.04437 54.921 -4.2991
316 1 17.9312 6.67933 0.322237 -4.31482
317 1 17.5099 8.89751 3.61254 -4.23692
318 1 19.2498 5.39111 3.06832 -4.16703
319 1 -15.9877 13.2779 3.7258 -4.08581
320 1 -15.8966 10.9814 55.5757 -4.68287
321 1 -15.5499 14.0369 1.49648 -4.20239
322 1 -13.0945 10.7207 1.4492 -4.57549
323 1 -13.3268 12.9378 -1.47415 -4.66771
324 1 -14.7084 12.1713 0.261151 -4.54142
325 1 -13.792 13.9339 3.05681 -4.79328
326 1 -11.3326 11.7088 2.81006 -4.51997
327 1 -12.2339 14.4633 -0.0553829 -4.59043
328 1 -10.6906 10.5285 55.6505 -4.58289
329 1 -10.6696 13.3517 1.29857 -4.4897
330 1 -7.8046 10.5308 1.28805 -4.56937
331 1 -7.92412 13.1767 55.5865 -4.55804
332 1 -9.27643 11.8362 0.0819691 -4.58282
333 1 -9.18416 14.6296 2.66997 -4.49736
334 1 -6.49944 11.9229 2.69188 -4.57304
335 1 -6.50786 14.6385 -0.208197 -4.59531
336 1 -5.24333 10.8708 55.4508 -4.61498
337 1 -5.25594 13.2383 1.21769 -4.61989
338 1 -2.69168 10.6535 1.41181 -4.59925
339 1 -2.35514 13.4829 55.4195 -4.55883
340 1 -3.72801 12.0615 -0.177321 -4.58524
341 1 -3.99527 14.5171 2.72213 -4.56248
342 1 -1.26815 11.8314 2.91427 -4.55526
343 1 -1.07502 14.7334 -0.126033 -4.56904
344 1 0.191289 10.6977 55.6083 -4.54092
345 1 -0.0139989 13.4698 1.62157 -4.5691
346 1 2.96653 10.8084 1.54275 -4.53651
347 1 2.77941 13.116 -1.25059 -4.56321
348 1 1.28501 12.0623 0.169733 -4.55134
349 1 1.33637 14.8013 2.94318 -4.55819
350 1 4.16046 12.2373 2.93164 -4.58153
351 1 4.11661 14.7447 -0.0400028 -4.54533
352 1 5.68195 10.6186 -1.55616 -4.58026
353 1 5.55803 13.5421 1.51577 -4.47168
354 1 8.00416 10.9214 1.52685 -4.57143
355 1 8.07595 13.2421 55.3797 -4.41878
356 1 6.66117 12.145 -0.11982 -4.51425
357 1 6.8226 15.0459 3.03787 -4.49568
358 1 9.35681 12.3893 2.79239 -4.39706
359 1 9.14803 15.0783 -0.289642 -4.74219
360 1 10.6854 10.6147 55.1135 -4.39231
361 1 10.5783 13.5224 1.04974 -4.64323
362 1 13.0078 10.7016 0.489112 -4.40343
363 1 13.3295 13.2904 54.5171 -4.26477
364 1 11.8574 12.3537 -0.731504 -4.81551
365 1 11.5976 14.6264 3.10031 -4.16205
366 1 14.2426 11.3006 3.26417 -4.32965
367 1 13.7579 13.7527 -0.125182 -4.22712
368 1 15.7521 10.362 54.827 -4.18136
369 1 14.9814 11.9443 1.05481 -4.58698
370 1 16.5063 10.2894 0.165953 -4.26446
371 1 -13.79 15.663 1.26639 -4.19941
372 1 -13.109 16.2818 3.58455 -4.19706
373 1 -9.84074 16.2403 55.1192 -4.3837
374 1 -7.7044 15.8921 1.39802 -4.31634
375 1 -8.73494 18.4219 55.5369 -4.09969
376 1 -9.60148 16.9204 0.33171 -4.34807
377 1 -6.4989 17.3187 2.86401 -5.33837
378 1 -8.3528 18.9631 0.886702 -4.26282
379 1 -5.34429 16.1519 55.2704 -4.57656
380 1 -6.00522 18.4834 0.684233 -4.15666
381 1 -2.80468 15.7972 1.187 -4.53984
382 1 -2.60229 18.741 -1.30091 -4.64411
383 1 -4.08994 17.3637 -0.145012 -4.5015
384 1 -4.8729 19.177 2.59349 -4.12981
385 1 -1.61316 17.0516 2.83391 -4.61031
386 1 -0.835385 19.6352 -0.0485518 -3.68306
387 1 0.369161 16.0484 -1.5882 -4.52709
388 1 0.045704 18.3434 1.71268 -4.71401
389 1 2.72006 15.874 1.40785 -4.53615
390 1 2.87455 19.0581 -0.567758 -4.43651
391 1 1.47097 17.2589 0.0573754 -4.60438
392 1 1.02657 19.6808 3.43284 -4.53426
393 1 3.65981 17.1255 3.24878 -4.63112
394 1 2.74383 20.2014 1.63565 -4.1931
395 1 5.52865 16.0258 55.672 -4.49767
396 1 4.75087 18.9058 2.11588 -4.28321
397 1 7.97882 17.0012 0.59954 -4.47008
398 1 9.35672 18.424 -0.655404 -4.37785
399 1 6.02912 17.9429 -0.211242 -4.21031
400 1 5.42724 19.8593 4.09694 -3.66486
401 1 8.27896 16.9501 2.97001 -4.50476
402 1 10.1602 15.5046 54.5491 -4.25877
403 1 12.2753 15.3221 0.932535 -4.27449
404 1 11.1062 16.7312 -0.695395 -4.24169
405 1 1.19166 20.6672 -0.324193 -4.33029
406 1 -12.8567 -16.3636 4.40106 -4.38745
407 1 -7.74451 -18.4666 4.52357 -3.74181
408 1 -9.06422 -16.9779 9.02554 -3.63957
409 1 -6.33246 -19.3382 9.96388 -4.12257
410 1 -6.26561 -17.3499 5.98705 -4.59096
411 1 -5.33981 -18.729 7.71725 -4.2021
412 1 -2.56728 -18.6036 4.83762 -4.33883
413 1 -3.12358 -19.283 7.13726 -4.24447
414 1 -3.59009 -17.4127 8.58378 -4.78945
415 1 -1.22162 -19.8606 8.34229 -3.89927
416 1 -1.19907 -17.1023 5.76251 -4.66523
417 1 1.30796 -20.7058 2.90125 -3.95087
418 1 0.210599 -18.4787 7.05818 -4.53712
419 1 2.73218 -18.1779 4.13198 -4.57901
420 1 1.26815 -19.6613 5.12218 -4.3604
421 1 1.44202 -17.1994 8.64388 -4.50767
422 1 5.19706 -19.2403 9.22993 -4.0553
423 1 4.10103 -17.2228 5.92259 -4.46568
424 1 5.7613 -17.963 7.39957 -4.68676
425 1 8.24676 -18.1924 3.95358 -4.48052
426 1 7.57246 -18.7435 6.2077 -3.50557
427 1 6.87598 -16.582 8.90119 -4.69911
428 1 9.3505 -17.228 5.9976 -4.3969
429 1 12.9003 -15.4229 9.54538 -4.23015
430 1 -18.028 -10.2099 6.51238 -4.03523
431 1 -16.2536 -12.454 6.45169 -3.99345
432 1 -13.2881 -14.5244 5.81535 -4.46791
433 1 -12.3462 -13.2293 4.13265 -4.3756
434 1 -15.4274 -13.9664 4.8676 -4.2295
435 1 -14.7162 -11.8435 8.11636 -4.6032
436 1 -11.9224 -14.5785 8.10492 -4.35039
437 1 -11.6114 -11.6808 5.8431 -4.57475
438 1 -10.376 -16.6205 4.64097 -4.19492
439 1 -10.2547 -13.1918 7.1514 -4.61568
440 1 -7.83253 -16.0996 7.22393 -4.69241
441 1 -7.83688 -13.3238 4.63485 -4.61032
442 1 -9.22675 -14.8073 5.78578 -4.52446
443 1 -9.36845 -11.7985 8.77421 -4.54294
444 1 -6.79134 -14.6146 8.66704 -4.50771
445 1 -6.49065 -12.0166 6.00307 -4.5755
446 1 -5.02912 -15.9775 4.56343 -4.58736
447 1 -5.32119 -13.4112 7.43154 -4.56965
448 1 -2.54945 -15.857 7.17054 -4.4633
449 1 -2.60796 -13.0041 4.60898 -4.57252
450 1 -3.85802 -14.421 5.97967 -4.55632
451 1 -4.01383 -11.8752 8.68212 -4.59395
452 1 -1.32788 -14.5098 8.59782 -4.59954
453 1 -1.19825 -11.6118 5.84562 -4.59721
454 1 0.0571178 -15.6188 4.34316 -4.62812
455 1 0.00232419 -13.1148 7.22466 -4.63334
456 1 2.72652 -15.832 7.20482 -4.65999
457 1 2.43694 -12.7611 4.42316 -4.54646
458 1 1.46389 -14.3449 5.79538 -4.57541
459 1 1.31347 -11.82 8.68483 -4.61953
460 1 4.11424 -14.4384 8.51888 -4.5638
461 1 3.78589 -11.4189 5.89082 -4.59698
462 1 5.16075 -15.5571 4.57209 -4.58733
463 1 5.15937 -12.81 7.2212 -4.55107
464 1 8.14104 -15.5502 7.09176 -4.58046
465 1 7.58844 -12.9889 4.54195 -4.57292
466 1 6.4805 -14.2538 6.03195 -4.57897
467 1 6.63069 -11.8148 8.74849 -4.62926
468 1 9.38794 -14.1252 8.53468 -4.51311
469 1 9.07804 -11.7428 5.88056 -4.58313
470 1 10.5065 -15.92 4.46338 -4.56583
471 1 10.5379 -13.1766 6.82793 -4.49102
472 1 13.3776 -15.437 7.29801 -3.96208
473 1 13.1619 -12.9776 4.13797 -4.51
474 1 11.9266 -14.5209 5.67961 -4.48328
475 1 11.9162 -11.9051 8.18195 -4.32985
476 1 13.7191 -13.2739 9.10675 -5.12514
477 1 14.7655 -11.8887 5.59783 -4.49999
478 1 15.1132 -13.8042 7.0832 -4.11221
479 1 16.0855 -13.223 9.21475 -4.18764
480 1 -18.4226 -8.08355 5.38 -4.53626
481 1 -19.0266 -6.28537 9.61894 -3.43632
482 1 -17.3379 -9.54907 8.58072 -4.62693
483 1 -16.9074 -6.73554 6.44002 -4.52908
484 1 -16.1894 -10.5987 5.05806 -4.71433
485 1 -15.6136 -8.11904 7.82699 -4.60148
486 1 -12.9896 -10.4775 7.299 -4.5748
487 1 -13.3435 -8.15884 4.30613 -4.54948
488 1 -14.4877 -9.27948 5.98494 -4.59971
489 1 -14.3447 -6.50031 8.87261 -4.54493
490 1 -11.7929 -9.23451 8.82225 -4.53221
491 1 -11.8633 -6.59664 5.60634 -4.55063
492 1 -10.3085 -10.3409 4.3927 -4.61894
493 1 -10.5448 -7.93984 7.19084 -4.59034
494 1 -7.7572 -10.6416 7.38585 -4.60791
495 1 -7.85724 -7.9201 4.41832 -4.54967
496 1 -8.97787 -9.23319 5.97822 -4.58726
497 1 -9.30852 -6.37497 8.52094 -4.55278
498 1 -6.55059 -9.18518 8.78097 -4.57395
499 1 -6.61891 -6.59006 5.78314 -4.56472
500 1 -5.39353 -10.6242 4.45522 -4.60634
501 1 -5.37482 -7.91331 7.33364 -4.56513
502 1 -2.70306 -10.3983 7.20897 -4.61495
503 1 -2.80127 -7.71631 4.36398 -4.55746
504 1 -4.0982 -9.12588 5.83759 -4.58287
505 1 -4.16685 -6.50436 8.68672 -4.5808
506 1 -1.33481 -9.09564 8.63187 -4.61315
507 1 -1.38792 -6.40081 5.77853 -4.61917
508 1 -0.126356 -10.2143 4.2281 -4.57634
509 1 -0.0591757 -7.81344 7.12562 -4.5798
510 1 2.52389 -10.1735 7.42258 -4.56632
511 1 2.59976 -7.91912 4.24471 -4.56545
512 1 1.21337 -9.05821 5.6866 -4.52688
513 1 1.24627 -6.67106 8.62055 -4.57559
514 1 4.08352 -8.96618 8.57591 -4.48563
515 1 3.90031 -6.42851 5.63135 -4.59456
516 1 5.13994 -10.1626 4.40116 -4.56613
517 1 5.30979 -7.45596 7.21814 -4.60599
518 1 7.90197 -10.2734 7.36434 -4.60148
519 1 7.79502 -7.56327 4.33946 -4.58632
520 1 6.57573 -8.94035 5.86805 -4.61715
521 1 6.94563 -6.24311 8.52943 -4.60146
522 1 9.39658 -9.03847 8.67806 -4.61833
523 1 9.3824 -6.28946 5.7762 -4.54346
524 1 10.3251 -10.212 4.55935 -4.61991
525 1 10.5789 -7.65225 7.18363 -4.58904
526 1 13.3685 -10.3744 6.84809 -4.58586
527 1 13.2096 -7.54439 4.19818 -4.58849
528 1 11.9992 -8.87952 5.72291 -4.58803
529 1 12.0081 -6.26115 8.4803 -4.57296
530 1 14.7404 -9.16388 8.53606 -4.50164
531 1 14.7327 -6.37353 5.6647 -4.52434
532 1 15.9383 -10.4695 4.11339 -4.49774
533 1 16.0598 -7.73808 7.19897 -4.64919
534 1 18.1898 -7.39773 3.95147 -3.85505
535 1 17.1324 -8.9623 5.48716 -3.72157
536 1 17.4756 -6.65037 8.89094 -4.45593
537 1 18.8769 -5.54725 5.18787 -3.68021
538 1 -18.2041 -5.1062 7.52914 -4.54821
539 1 -17.583 -2.84416 4.15341 -4.34933
540 1 -19.0462 -4.25334 5.38176 -4.37842
541 1 -19.4909 -2.26898 6.70419 -3.98002
542 1 -16.9572 -3.66771 8.67871 -4.57703
543 1 -17.5034 -1.09018 5.78626 -5.42446
544 1 -16.2987 -5.77925 4.30605 -4.86587
545 1 -15.9014 -2.53 6.93647 -4.28595
546 1 -13.2408 -5.35405 7.01758 -4.50934
547 1 -13.4287 -2.87635 4.36928 -4.58299
548 1 -14.8708 -4.25358 5.63816 -4.38321
549 1 -14.5966 -1.38417 8.56205 -4.48073
550 1 -12.0523 -4.04173 8.63763 -4.59624
551 1 -12.1024 -1.3778 5.70532 -4.5804
552 1 -10.4544 -5.26193 4.18485 -4.60282
553 1 -10.7855 -2.51037 7.30806 -4.55341
554 1 -7.9437 -5.13488 7.00316 -4.57428
555 1 -7.93893 -2.54475 4.3554 -4.62987
556 1 -9.36639 -3.78852 5.7069 -4.58479
557 1 -9.21218 -1.32517 8.68933 -4.60218
558 1 -6.80585 -3.96253 8.64335 -4.52424
559 1 -6.54126 -1.21401 5.8045 -4.6166
560 1 -5.2264 -5.23972 4.43076 -4.61756
561 1 -5.33952 -2.65421 7.24264 -4.61771
562 1 -2.74718 -5.12714 7.23247 -4.58354
563 1 -2.75239 -2.20372 4.32875 -4.50493
564 1 -3.92504 -3.74955 5.72191 -4.61436
565 1 -4.09976 -1.24713 8.73057 -4.64344
566 1 -1.47447 -3.92312 8.76563 -4.59625
567 1 -1.32457 -1.29173 5.89203 -4.56679
568 1 -0.0613048 -4.92798 4.39556 -4.54655
569 1 -0.0731795 -2.56382 7.35565 -4.5629
570 1 2.6153 -5.27075 7.20926 -4.59212
571 1 2.46368 -2.37329 4.32505 -4.59199
572 1 1.36841 -3.75226 5.93524 -4.61154
573 1 1.44278 -1.21107 8.78337 -4.58899
574 1 4.03452 -3.93255 8.55952 -4.58097
575 1 3.78758 -0.995831 5.71868 -4.56099
576 1 5.33092 -4.94751 4.33634 -4.58625
577 1 5.08186 -2.45609 7.13179 -4.58194
578 1 8.12835 -4.8207 7.03568 -4.57518
579 1 8.0134 -2.39758 4.29307 -4.5989
580 1 6.61537 -3.62281 5.75063 -4.5877
581 1 6.5555 -1.2266 8.50393 -4.59092
582 1 9.26214 -3.61365 8.59763 -4.60551
583 1 9.11173 -0.963799 5.76337 -4.58302
584 1 10.6424 -5.00957 4.35 -4.57184
585 1 10.5965 -2.33359 7.05976 -4.63291
586 1 13.357 -5.05269 7.14018 -4.55591
587 1 13.0987 -2.20965 4.39053 -4.55766
588 1 11.9447 -3.72934 5.74645 -4.57829
589 1 11.9143 -1.12121 8.58266 -4.59359
590 1 14.7805 -3.82488 8.58294 -4.55231
591 1 14.6649 -0.989019 5.69415 -4.60901
592 1 15.9072 -5.06645 4.21492 -4.45557
593 1 16.0532 -2.26575 7.12635 -4.30267
594 1 18.2195 -4.93071 7.34079 -3.50487
595 1 18.9607 -2.34336 3.97896 -4.2095
596 1 17.3939 -3.72313 5.4101 -4.98803
597 1 17.1326 -0.745055 8.44114 -4.52938
598 1 19.0827 -2.04004 8.97096 -4.60559
599 1 19.7893 -0.329328 5.02822 -4.37221
600 1 -19.7183 -0.460242 5.09391 -4.06507
601 1 -18.0185 0.39821 7.68847 -4.45802
602 1 -18.1393 2.76225 4.88661 -4.63935
603 1 -19.5134 1.60567 6.44846 -4.53915
604 1 -19.1375 3.5371 7.86698 -4.18751
605 1 -16.6194 1.72496 8.95377 -4.62134
606 1 -17.3299 4.4763 6.35052 -4.9202
607 1 -15.9115 0.105244 4.46637 -4.34955
608 1 -15.6957 2.99179 7.20799 -4.3692
609 1 -13.3716 0.018467 7.11261 -4.60385
610 1 -13.2019 2.74151 4.44013 -4.63121
611 1 -14.6345 1.50207 5.86752 -4.54339
612 1 -14.3317 4.10094 8.6772 -4.53854
613 1 -12.0918 1.34755 8.71008 -4.54302
614 1 -11.8402 4.05159 5.7715 -4.59893
615 1 -10.5768 0.0996264 4.57627 -4.59133
616 1 -10.692 2.59425 7.26456 -4.59757
617 1 -7.9088 0.176981 7.28551 -4.58485
618 1 -7.81875 2.80172 4.40296 -4.50212
619 1 -9.16766 1.47398 5.81984 -4.59943
620 1 -9.23834 3.95236 8.58518 -4.55841
621 1 -6.61454 1.62149 8.75649 -4.61356
622 1 -6.42681 3.91045 5.81375 -4.54987
623 1 -5.21817 0.19476 4.35602 -4.58363
624 1 -5.14727 2.75389 7.32755 -4.5599
625 1 -2.73738 0.0734508 7.28657 -4.61984
626 1 -2.45818 2.84944 4.51828 -4.59062
627 1 -3.91861 1.49547 5.80121 -4.58229
628 1 -3.97342 4.30247 8.65239 -4.59786
629 1 -1.47638 1.28502 8.87183 -4.58386
630 1 -1.22292 4.16212 6.10558 -4.5232
631 1 -0.00750678 0.225959 4.6088 -4.58948
632 1 -0.0811198 2.76263 7.55711 -4.60391
633 1 2.71572 0.160365 7.32284 -4.5686
634 1 2.54399 3.03356 4.57734 -4.56323
635 1 1.32293 1.52507 6.086 -4.58797
636 1 1.21532 4.18779 8.92418 -4.57025
637 1 4.09856 1.51492 8.66509 -4.62236
638 1 4.04122 4.15402 5.9185 -4.56251
639 1 5.3989 0.265422 4.47767 -4.59185
640 1 5.45893 2.84772 7.25921 -4.61818
641 1 8.07204 0.242866 7.48499 -4.54462
642 1 8.01647 2.83316 4.50736 -4.56926
643 1 6.82507 1.41831 5.94816 -4.586
644 1 6.76342 4.2636 8.74836 -4.62207
645 1 9.43046 1.62434 8.79668 -4.58863
646 1 9.31339 4.19968 5.88208 -4.58491
647 1 10.5922 0.262241 4.38001 -4.60611
648 1 10.7395 2.89913 7.26507 -4.6219
649 1 13.2484 0.176978 7.12761 -4.57175
650 1 12.9584 3.05638 4.15591 -4.58041
651 1 11.9326 1.57377 5.75672 -4.5727
652 1 12.1093 4.26644 8.67286 -4.57271
653 1 14.5252 1.27541 8.70272 -4.50322
654 1 14.3269 4.31357 5.45931 -4.52543
655 1 15.6013 0.275481 3.90704 -4.56424
656 1 15.3723 2.82932 7.07636 -4.50973
657 1 18.0402 0.183228 6.47936 -4.6431
658 1 18.0873 2.45849 3.74391 -4.5381
659 1 16.648 1.68024 5.47554 -4.63091
660 1 17.0831 3.94838 8.18722 -4.56029
661 1 19.4424 1.72207 7.53821 -4.49024
662 1 19.5416 3.9056 4.89099 -4.59371
663 1 20.7805 1.82001 5.37285 -4.13319
664 1 -19.3721 5.81688 8.37365 -4.32365
665 1 -18.3872 7.874 4.81124 -3.58685
666 1 -19.2326 5.87326 5.76214 -4.35242
667 1 -17.1864 6.6721 8.60129 -4.68994
668 1 -17.312 9.84322 5.84497 -4.46981
669 1 -16.1813 5.33682 4.49899 -4.38372
670 1 -16.136 8.10062 6.98081 -4.49149
671 1 -13.1349 5.31515 7.12649 -4.54798
672 1 -13.2586 7.99765 4.43113 -4.57909
673 1 -14.6428 6.57534 5.78871 -4.59674
674 1 -14.5622 8.80914 8.52946 -4.60172
675 1 -11.8322 6.58182 8.65988 -4.56484
676 1 -11.625 9.10275 5.65587 -4.56355
677 1 -10.6363 5.40229 4.32973 -4.56287
678 1 -10.3995 7.87476 7.29824 -4.59412
679 1 -7.68211 5.30583 7.27159 -4.54613
680 1 -7.78983 7.8275 4.25133 -4.59225
681 1 -9.16548 6.65366 5.77023 -4.54183
682 1 -9.13332 9.26793 8.69084 -4.56397
683 1 -6.4174 6.77336 8.69516 -4.5022
684 1 -6.40632 9.1315 5.57691 -4.57212
685 1 -5.25214 5.24442 4.22916 -4.58806
686 1 -5.18586 8.06741 7.25386 -4.52322
687 1 -2.69867 5.56161 7.24291 -4.61542
688 1 -2.59048 7.92206 4.27471 -4.58494
689 1 -4.06129 6.66137 5.73071 -4.56583
690 1 -4.02889 9.47269 8.63883 -4.57296
691 1 -1.45654 6.94508 8.64589 -4.56242
692 1 -1.37937 9.41348 5.70821 -4.61686
693 1 -0.179019 5.42929 4.43024 -4.60122
694 1 -0.0118277 8.03404 7.10324 -4.62483
695 1 2.50722 5.40498 7.1969 -4.59717
696 1 2.81161 8.16463 4.30723 -4.60789
697 1 1.35416 6.83977 5.57974 -4.56865
698 1 1.21759 9.42498 8.55432 -4.56373
699 1 3.90303 6.76184 8.49948 -4.58844
700 1 4.0345 9.55178 5.67041 -4.60159
701 1 5.28164 5.44431 4.31804 -4.61117
702 1 5.20848 7.98261 6.98234 -4.60653
703 1 8.09591 5.64379 7.32345 -4.61767
704 1 8.02777 8.28903 4.46853 -4.58905
705 1 6.71716 6.69625 5.70715 -4.60845
706 1 6.51604 9.41244 8.51637 -4.55782
707 1 9.44957 7.02755 8.68548 -4.57592
708 1 9.45764 9.54851 5.92233 -4.51231
709 1 10.3272 5.67991 4.34516 -4.538
710 1 10.9375 8.37161 7.28534 -4.33694
711 1 13.1305 5.59451 7.01998 -4.55133
712 1 12.9686 8.24777 3.86544 -4.33756
713 1 11.8106 7.03448 5.50685 -4.50402
714 1 12.3833 9.72741 8.82897 -4.91207
715 1 14.5729 6.76854 8.41812 -4.42693
716 1 14.3337 9.10512 5.58941 -4.49898
717 1 15.5974 5.7056 3.91792 -4.22267
718 1 15.9595 8.31597 7.22463 -4.68799
719 1 17.7471 4.86973 6.06767 -4.23258
720 1 19.2454 7.46359 4.39953 -4.09382
721 1 17.0217 7.13887 5.3174 -5.26608
722 1 17.3053 9.54127 8.82957 -4.12543
723 1 19.0145 6.67708 6.64768 -4.15657
724 1 -16.1902 11.3526 7.35873 -4.13
725 1 -15.8668 10.7115 4.19035 -4.40029
726 1 -15.6881 13.3222 6.07482 -4.26086
727 1 -12.9516 10.1013 7.36603 -4.45097
728 1 -12.6262 12.7128 4.57914 -3.9618
729 1 -14.3005 11.4278 5.81564 -5.06033
730 1 -13.8948 14.4654 7.25245 -4.13151
731 1 -11.3879 11.6244 8.28508 -4.59463
732 1 -11.8199 14.5505 6.01539 -5.36161
733 1 -10.145 10.3848 4.26142 -4.52069
734 1 -10.2508 13.2248 7.0274 -4.31689
735 1 -7.78509 10.4836 7.03612 -4.55834
736 1 -7.93074 13.3137 4.14314 -4.57742
737 1 -8.98638 11.8421 5.60278 -4.56604
738 1 -8.90775 14.6803 8.39861 -4.56305
739 1 -6.64791 12.0113 8.4259 -4.58677
740 1 -6.54198 14.5619 5.50619 -4.56904
741 1 -5.16351 10.711 4.21691 -4.56691
742 1 -5.26133 13.3967 7.09686 -4.57141
743 1 -2.48314 10.7354 7.30934 -4.5553
744 1 -2.63574 13.2571 4.13421 -4.59153
745 1 -3.86961 11.9591 5.72346 -4.59887