ITEM: TIMESTEP
306000
ITEM: NUMBER OF ATOMS
4050
ITEM: BOX BOUNDS ss ss pp
-2.0607990944303392e+01 2.0535725553182360e+01
-2.0140894970575662e+01 2.0180626432355321e+01
-4.1547150000000004e+00 5.8464714999999998e+01
ITEM: ATOMS id type x y z c_peratom
1 1 -11.9191 -14.7415 -1.89558 -3.8258
2 1 -7.69956 -17.5351 -3.20166 -4.28695
3 1 -8.87733 -16.7683 -0.283609 -4.48337
4 1 -7.28742 -18.544 -0.961629 -4.34824
5 1 -6.33821 -15.8186 -2.52005 -4.5832
6 1 -5.1995 -17.5266 -1.26951 -4.65988
7 1 -2.28134 -18.1536 58.3105 -4.54422
8 1 -4.60984 -18.3916 -3.38182 -3.88179
9 1 -3.66714 -16.7171 0.406029 -4.39743
10 1 -0.652541 -18.9839 0.603058 -4.36917
11 1 -1.55081 -16.3953 -2.79315 -4.45217
12 1 0.488127 -18.8757 -2.49149 -4.02733
13 1 -0.412214 -17.3164 -0.957315 -4.59431
14 1 3.27596 -17.4513 -3.85612 -4.54667
15 1 2.79219 -19.204 -2.3695 -4.33436
16 1 1.33205 -16.1701 0.350141 -4.57918
17 1 3.57563 -18.8374 -0.132211 -4.22701
18 1 3.9353 -15.8665 -2.34395 -4.64049
19 1 5.20442 -17.5305 -1.20191 -4.48564
20 1 6.72782 -17.8176 -3.03164 -4.26936
21 1 9.38343 -16.8691 -0.204539 -4.23168
22 1 6.30922 -16.4062 0.660821 -4.51309
23 1 8.6227 -16.5798 -2.3587 -4.14807
24 1 10.6785 -15.3047 0.820141 -4.49451
25 1 -14.7779 -12.3296 -2.23315 -4.20784
26 1 -15.383 -13.5276 -0.23573 -4.27905
27 1 -13.8685 -15.3731 -0.879019 -4.37664
28 1 -12.2496 -12.8691 58.1915 -4.50707
29 1 -13.7053 -14.3184 -3.10807 -4.45714
30 1 -14.0621 -11.4277 -0.194077 -4.14699
31 1 -11.4251 -13.625 0.195529 -4.86342
32 1 -11.4489 -11.3098 -2.80822 -4.57108
33 1 -10.0336 -15.4077 58.5906 -3.91511
34 1 -9.97708 -12.2695 -1.30516 -4.39684
35 1 -7.77712 -14.8386 -0.922364 -4.54852
36 1 -7.41935 -12.7452 -4.23113 -4.57729
37 1 -8.90985 -13.7593 -2.84835 -4.5636
38 1 -8.61578 -11.1462 0.23485 -4.44752
39 1 -6.20116 -13.9237 0.456849 -4.49907
40 1 -6.11007 -11.2161 -2.84163 -4.55789
41 1 -4.57138 -15.5239 58.636 -4.5262
42 1 -5.10664 -12.5589 -1.19261 -4.50261
43 1 -2.75557 -15.0556 -1.02807 -4.42993
44 1 -2.31798 -12.6427 58.2947 -4.45405
45 1 -3.67444 -13.8456 -2.68067 -4.4083
46 1 -3.74251 -11.1476 0.343985 -4.56329
47 1 -1.2932 -13.7326 0.380152 -4.56353
48 1 -1.40836 -11.1907 -2.67165 -4.50354
49 1 -0.0859447 -15.0823 -4.028 -4.5907
50 1 0.0617554 -12.3951 -1.0991 -4.48692
51 1 2.47663 -14.6188 -1.01028 -4.48689
52 1 2.57077 -12.76 58.1629 -4.52288
53 1 1.22847 -13.6177 -2.75862 -4.46517
54 1 1.42415 -11.3532 0.398722 -4.46943
55 1 4.0337 -13.8988 0.616784 -4.47765
56 1 3.76166 -11.4594 -2.75914 -4.48642
57 1 5.11087 -14.8016 -4.10273 -4.53174
58 1 4.94596 -12.4804 -0.995837 -4.47214
59 1 7.7377 -14.9547 -0.707828 -4.94418
60 1 7.79218 -12.652 58.5435 -4.36977
61 1 6.4743 -13.6809 -2.4466 -4.3398
62 1 6.30696 -11.1795 0.405167 -4.5595
63 1 8.88988 -13.6615 0.886898 -4.46248
64 1 8.55497 -11.198 -2.20694 -4.52935
65 1 9.99079 -15.4646 58.6147 -4.16176
66 1 10.0093 -12.3014 -0.626264 -4.33795
67 1 12.3782 -14.6533 -1.06246 -4.14344
68 1 11.66 -11.7132 -3.81101 -4.35115
69 1 10.8337 -13.652 -2.49586 -4.86494
70 1 11.6431 -11.2513 0.949615 -4.53644
71 1 14.1312 -13.1849 -0.222357 -4.11492
72 1 13.8084 -11.0554 -1.30491 -4.82792
73 1 15.7895 -12.4687 -1.84295 -4.03024
74 1 15.9252 -10.4661 -0.566141 -4.02234
75 1 -17.5451 -7.32923 57.523 -3.92929
76 1 -18.5021 -5.79868 1.46714 -4.23138
77 1 -16.5517 -8.66206 0.736453 -3.58071
78 1 -16.7524 -6.31521 -2.47457 -4.02785
79 1 -14.9562 -10.4271 -3.89352 -3.99852
80 1 -15.3553 -7.68451 -1.16366 -4.60869
81 1 -12.6625 -10.0227 -1.28522 -4.47466
82 1 -12.4435 -7.1322 -4.02814 -4.50719
83 1 -13.8331 -8.75376 -2.83137 -4.5895
84 1 -13.8689 -6.49946 0.314692 -4.47534
85 1 -11.2964 -9.03181 0.421157 -4.46978
86 1 -11.3479 -5.92489 -2.36783 -4.53544
87 1 -9.89365 -10.0154 -3.98818 -4.59651
88 1 -10.1139 -7.36861 -0.922351 -4.53002
89 1 -7.26604 -9.77247 -1.36172 -4.51166
90 1 -7.53399 -7.43074 58.3348 -4.48741
91 1 -8.87156 -8.39338 -2.5578 -4.53303
92 1 -8.84167 -5.91594 0.487942 -4.53387
93 1 -6.09406 -8.50235 0.4011 -4.50326
94 1 -6.34271 -6.02641 -2.68968 -4.54582
95 1 -4.71814 -10.1462 58.1723 -4.46236
96 1 -4.89178 -7.2315 -1.09546 -4.50693
97 1 -2.44633 -9.8064 -1.10428 -4.50087
98 1 -2.5989 -7.47304 58.4508 -4.58254
99 1 -3.90253 -8.83579 -2.59225 -4.46424
100 1 -3.64956 -6.05308 0.512583 -4.52752
101 1 -1.16701 -8.70109 0.626477 -4.54328
102 1 -1.30613 -6.16903 -2.64637 -4.49621
103 1 0.0980059 -10.1269 58.5257 -4.50716
104 1 -0.0445018 -7.32677 -0.926412 -4.48845
105 1 2.49407 -10.0905 -1.2276 -4.51389
106 1 2.51864 -7.73857 -4.08871 -4.49008
107 1 0.999721 -8.697 -2.49455 -4.50794
108 1 1.1585 -6.0491 0.551977 -4.55823
109 1 3.52885 -8.93141 0.477385 -4.48792
110 1 3.54051 -6.41259 -2.46266 -4.48895
111 1 5.08947 -10.0798 58.4233 -4.5518
112 1 4.96312 -7.62061 -0.93776 -4.56304
113 1 7.63058 -9.58812 -0.765435 -4.49981
114 1 7.73448 -7.53679 -4.12347 -4.54284
115 1 6.276 -8.68841 -2.55275 -4.43202
116 1 6.12035 -6.17655 0.586391 -4.53558
117 1 9.00692 -8.74288 0.952311 -4.50886
118 1 8.75573 -6.27528 -2.42571 -4.47896
119 1 10.1187 -9.9241 -3.37496 -4.46984
120 1 9.96717 -7.27989 -0.677939 -4.57076
121 1 12.7113 -9.49675 -0.00935825 -4.3569
122 1 12.5038 -7.47447 -3.86496 -4.42688
123 1 11.4941 -8.68511 -1.8839 -4.44213
124 1 11.3915 -5.99221 0.769255 -4.52132
125 1 14.4745 -8.29738 1.15958 -4.49276
126 1 13.7695 -6.15969 -2.28444 -4.64643
127 1 14.7863 -9.80544 -3.4281 -4.42225
128 1 15.3522 -7.17817 -0.926712 -4.61406
129 1 16.9219 -6.75684 -3.81303 -4.4562
130 1 16.4862 -8.80913 -2.2228 -4.39963
131 1 16.5973 -5.47556 0.100091 -4.46698
132 1 18.6714 -5.21552 -4.00511 -3.71252
133 1 -18.142 -5.18133 -1.01081 -4.25915
134 1 -17.423 -2.49629 -3.71942 -4.98067
135 1 -18.7212 -2.95062 -1.65072 -4.17372
136 1 -17.5165 -1.90976 -0.00947658 -4.60679
137 1 -16.5118 -4.79833 0.671716 -4.48094
138 1 -16.2412 -0.7064 -2.72292 -4.5947
139 1 -15.2334 -4.9755 -3.63842 -4.56422
140 1 -15.5199 -2.3084 -1.15945 -4.50219
141 1 -12.8802 -4.78263 -0.965578 -4.55721
142 1 -12.6964 -2.19826 -4.20612 -4.46397
143 1 -13.9089 -3.46458 -2.57304 -4.45061
144 1 -13.9441 -1.10942 0.289839 -4.50048
145 1 -11.4161 -3.64157 0.512701 -4.52143
146 1 -11.236 -0.987553 -2.73166 -4.51338
147 1 -10.1958 -4.85071 58.4824 -4.50496
148 1 -10.1992 -2.38846 -1.1592 -4.46857
149 1 -7.64502 -4.69062 -1.19705 -4.47045
150 1 -7.29081 -2.29469 58.1758 -4.43005
151 1 -8.72755 -3.37798 -2.85366 -4.51812
152 1 -8.94283 -1.1365 0.435721 -4.54495
153 1 -6.38852 -3.73158 0.57018 -4.51391
154 1 -6.21492 -1.09527 -2.4923 -4.39012
155 1 -4.91819 -4.87845 58.4547 -4.46033
156 1 -4.99608 -2.37088 -0.848013 -4.51159
157 1 -2.37505 -4.74545 -1.05699 -4.51598
158 1 -2.64025 -2.51282 -4.24562 -4.54548
159 1 -3.84787 -3.64555 -2.51384 -4.4488
160 1 -3.92265 -0.871563 0.720133 -4.48799
161 1 -1.33403 -3.37501 0.593285 -4.44216
162 1 -1.42172 -1.19969 -2.69483 -4.53232
163 1 0.0792979 -5.00727 58.3937 -4.56093
164 1 -0.0723932 -2.53795 -1.18778 -4.43905
165 1 2.47346 -4.91041 -0.97445 -4.51093
166 1 2.67395 -2.49818 58.393 -4.50577
167 1 1.32078 -3.81326 -2.69138 -4.52398
168 1 1.05892 -1.30515 0.498891 -4.45395
169 1 3.72168 -3.54845 0.500887 -4.52758
170 1 3.71178 -1.11178 -2.45907 -4.53086
171 1 4.80418 -5.19828 -4.18176 -4.47919
172 1 5.09844 -2.38736 -1.0373 -4.49052
173 1 7.48673 -4.937 -0.94074 -4.47362
174 1 7.38967 -2.42233 -4.02986 -4.51926
175 1 6.1568 -3.91324 -2.7641 -4.47041
176 1 6.25812 -1.1975 0.695413 -4.52228
177 1 8.74 -3.73174 0.708011 -4.44794
178 1 8.83599 -1.24048 -2.41487 -4.41975
179 1 9.94337 -4.964 -3.93197 -4.52634
180 1 10.0495 -2.32551 -0.70127 -4.4389
181 1 12.6393 -4.74891 -0.861344 -4.49327
182 1 12.4015 -2.38818 -3.89606 -4.51498
183 1 11.1498 -3.65222 -2.36532 -4.51065
184 1 11.4927 -1.47947 1.14679 -4.41347
185 1 14.5609 -4.20396 0.365878 -4.41026
186 1 13.4342 -1.22615 -2.08473 -4.4709
187 1 15.156 -5.1417 -3.83812 -4.59006
188 1 15.1841 -2.36456 -0.83811 -4.53433
189 1 18.0799 -4.38492 -1.68417 -4.45836
190 1 17.736 -1.94056 -4.21328 -4.6236
191 1 16.331 -3.38233 -2.71588 -4.67517
192 1 16.3778 -1.27625 0.893542 -4.34307
193 1 19.1489 -2.36993 -0.700826 -4.17641
194 1 19.2119 -0.918491 -2.61513 -3.72408
195 1 -19.3781 -1.22366 -3.38643 -4.31048
196 1 -18.1503 0.370249 0.244827 -4.3766
197 1 -17.7141 2.34038 -4.00338 -4.39444
198 1 -18.1546 0.545216 -2.29796 -4.3881
199 1 -18.0653 4.15359 1.2757 -4.14661
200 1 -16.1503 1.4729 0.862872 -4.5372
201 1 -16.331 3.55774 -2.42891 -4.40618
202 1 -14.9405 0.15776 58.0798 -4.47855
203 1 -15.047 2.12455 -1.15682 -4.41649
204 1 -12.5391 0.179348 -1.14885 -4.45177
205 1 -12.5895 2.57068 58.114 -4.51208
206 1 -13.6775 1.2255 -2.94966 -4.37473
207 1 -13.8124 3.69509 0.0359894 -4.51746
208 1 -11.2677 1.46811 0.515824 -4.53126
209 1 -11.3809 3.78427 -2.84774 -4.48496
210 1 -9.96853 0.132503 58.2843 -4.46371
211 1 -10.0568 2.60172 -1.10189 -4.49836
212 1 -7.47025 0.0510118 -0.992768 -4.50503
213 1 -7.53674 2.62221 -4.30925 -4.52079
214 1 -8.68895 1.32631 -2.66562 -4.49463
215 1 -8.90771 4.06018 0.261182 -4.52727
216 1 -6.44608 1.42667 0.553695 -4.54951
217 1 -6.39055 4.01246 -2.70545 -4.46506
218 1 -4.92454 0.24078 58.5363 -4.44748
219 1 -5.31401 2.81264 -0.989043 -4.48018
220 1 -2.44273 0.0917654 -1.00627 -4.45581
221 1 -2.33823 2.39539 -4.14104 -4.42343
222 1 -3.79135 1.48264 -2.4183 -4.47666
223 1 -3.77567 3.81511 0.62537 -4.53702
224 1 -1.08778 1.10156 0.596198 -4.50995
225 1 -1.3321 3.7248 -2.51232 -4.53518
226 1 0.0371024 -0.136641 58.4726 -4.49276
227 1 0.0211407 2.40729 -1.06457 -4.54436
228 1 2.43693 0.0751487 -0.840619 -4.53739
229 1 2.59987 2.46204 58.4968 -4.53167
230 1 1.29559 1.14863 -2.56534 -4.52485
231 1 1.30401 3.6993 0.538587 -4.56123
232 1 3.92926 1.41233 0.556562 -4.52478
233 1 3.78755 3.85239 -2.49355 -4.52039
234 1 5.0894 0.274407 58.6465 -4.43358
235 1 5.22004 2.69271 -0.977063 -4.51846
236 1 7.63978 0.0739878 -0.764565 -4.51977
237 1 7.61467 2.66228 -3.90613 -4.48695
238 1 6.46993 1.43066 -2.2883 -4.41999
239 1 6.41614 4.01985 0.6032 -4.5346
240 1 8.75735 1.22249 0.871384 -4.54692
241 1 8.79689 3.95042 -2.30071 -4.49677
242 1 9.98846 0.220561 -3.9622 -4.41921
243 1 9.86654 2.62884 -0.693419 -4.55263
244 1 12.4254 0.0458307 -0.412232 -4.50542
245 1 12.2909 2.40535 -3.38015 -4.60265
246 1 10.9611 1.04543 -1.95966 -4.46207
247 1 11.1592 3.76568 0.936878 -4.52719
248 1 13.8092 1.33261 1.11914 -4.54654
249 1 13.5116 3.84451 -2.09437 -4.5262
250 1 14.7696 -0.0355435 -3.54097 -4.47772
251 1 14.8901 2.4958 -0.656059 -4.38917
252 1 17.8731 -0.279956 -0.654232 -4.83676
253 1 17.1576 2.03423 -3.70593 -4.33581
254 1 16.1698 0.882065 -1.98191 -4.31275
255 1 16.2479 3.97644 0.536398 -4.82825
256 1 18.9911 0.877154 1.28215 -4.22993
257 1 18.7267 3.58623 -3.56486 -4.27184
258 1 19.2966 1.47953 -4.26627 -3.92438
259 1 -18.0345 4.98358 -1.43913 -4.05458
260 1 -17.3482 7.84341 57.476 -4.39645
261 1 -17.6778 6.20797 -3.54279 -4.20671
262 1 -16.7288 6.591 -0.292349 -4.54589
263 1 -16.1686 9.04608 -3.44497 -3.58506
264 1 -15.7122 4.86993 58.2642 -5.28848
265 1 -15.139 7.88287 -1.60326 -4.61628
266 1 -12.7211 5.21813 -1.42242 -4.55911
267 1 -12.5423 7.55871 58.1345 -4.60562
268 1 -14.1017 6.36646 -3.09892 -4.32105
269 1 -13.8358 9.04461 -0.00232199 -4.49925
270 1 -11.4709 6.52844 0.0531477 -4.52768
271 1 -11.3941 8.99311 -2.91685 -4.57828
272 1 -10.2092 4.98161 58.0466 -4.50596
273 1 -10.0219 7.51284 -1.60305 -4.48691
274 1 -7.6699 5.30827 -1.25337 -4.44808
275 1 -7.42562 7.53318 58.3051 -4.61344
276 1 -8.89983 6.14981 -3.09744 -4.48769
277 1 -8.82443 8.70791 0.20217 -4.43823
278 1 -6.35371 6.39454 0.367781 -4.51521
279 1 -6.11472 8.78346 -2.79467 -4.55695
280 1 -4.90764 4.99992 58.2582 -4.48846
281 1 -4.85561 7.52648 -1.113 -4.5071
282 1 -2.60203 5.15418 -0.944344 -4.50831
283 1 -2.35077 7.70174 58.392 -4.50369
284 1 -3.62997 6.29273 -2.72357 -4.47621
285 1 -3.75688 8.94089 0.54487 -4.5346
286 1 -1.15957 6.45353 0.42636 -4.56188
287 1 -1.23839 8.93742 -2.5559 -4.47269
288 1 -0.059804 4.99055 58.597 -4.4696
289 1 0.293796 7.77518 -0.895904 -4.48846
290 1 2.52247 5.04806 -0.899217 -4.5093
291 1 2.48211 7.48445 58.5758 -4.53758
292 1 1.26762 6.22011 -2.49025 -4.53363
293 1 1.42961 9.23954 0.620324 -4.46734
294 1 3.94265 6.67325 0.504339 -4.4457
295 1 3.6938 9.04112 -2.64272 -4.52592
296 1 5.05196 4.99776 -4.1614 -4.53091
297 1 5.19087 7.88426 -1.19962 -4.53632
298 1 7.65229 5.41155 -0.90722 -4.56505
299 1 7.40895 7.22749 58.0708 -4.48444
300 1 6.29795 6.35455 -2.62969 -4.4588
301 1 6.58113 9.11732 0.376244 -4.35281
302 1 9.18094 6.8064 0.436931 -4.36046
303 1 8.57171 8.8755 -3.22325 -4.3067
304 1 9.96041 5.11082 -3.94228 -4.568
305 1 10.0511 7.94445 -1.56085 -4.3554
306 1 12.0494 5.23852 -0.774567 -4.45321
307 1 12.7381 7.31631 57.9384 -4.93166
308 1 11.4336 6.48804 -2.75864 -4.40062
309 1 11.6118 9.46891 1.33913 -4.44196
310 1 13.5831 6.38825 0.565069 -4.51641
311 1 13.1701 9.17322 -3.26317 -4.06682
312 1 14.6116 4.71685 58.5286 -4.47493
313 1 15.4177 7.723 -0.506758 -4.46937
314 1 17.6504 4.43737 -1.39821 -4.02003
315 1 16.3181 6.29969 -4.37673 -4.64059
316 1 16.3358 6.18132 -2.03669 -3.7744
317 1 16.3326 8.50174 1.66398 -4.3349
318 1 18.2469 5.18438 0.995003 -4.03458
319 1 -15.6919 12.7151 1.66951 -3.87998
320 1 -14.7358 10.6317 58.137 -4.56136
321 1 -15.0245 13.573 -1.04396 -3.78086
322 1 -12.5812 10.3538 -1.43205 -4.51245
323 1 -12.6222 13.1294 -3.97676 -4.949
324 1 -13.9633 11.8525 -2.46245 -4.3298
325 1 -13.6745 13.7182 0.889812 -4.87748
326 1 -11.033 11.0694 0.211847 -4.46406
327 1 -11.5506 14.1626 -2.1199 -4.3907
328 1 -10.0788 10.217 58.2043 -4.62841
329 1 -10.0895 12.5693 -1.30535 -4.48773
330 1 -7.61928 10.0028 -1.38831 -4.52809
331 1 -7.4844 12.7401 58.1619 -4.44286
332 1 -8.6606 11.4587 -2.88085 -4.49763
333 1 -8.98792 14.0234 0.271808 -4.49937
334 1 -6.33012 11.3201 0.233251 -4.53446
335 1 -6.36172 14.1988 -2.8411 -4.55469
336 1 -4.90955 10.1229 -4.34824 -4.5222
337 1 -5.14345 12.8271 -1.31104 -4.52795
338 1 -2.53769 10.176 -1.0995 -4.50846
339 1 -2.56057 12.6602 58.4314 -4.55126
340 1 -3.85433 11.394 -2.63738 -4.57107
341 1 -3.77205 14.0372 0.127527 -4.36054
342 1 -1.31315 11.3613 0.62119 -4.49156
343 1 -1.27999 13.8115 -2.55553 -4.58103
344 1 0.00525134 10.3032 58.4831 -4.5442
345 1 -0.0706971 12.6912 -0.908509 -4.51609
346 1 2.62096 10.4443 -0.9909 -4.46248
347 1 2.80445 12.6511 -4.15316 -4.48966
348 1 1.15912 11.6315 -2.5928 -4.46069
349 1 1.16637 14.0612 0.606062 -4.50911
350 1 3.88747 11.6485 0.583549 -4.54159
351 1 4.15323 14.0165 -2.54538 -4.4214
352 1 5.18462 9.94869 58.3531 -4.46662
353 1 5.28941 12.9842 -0.805391 -4.24843
354 1 7.63993 10.4681 -1.46385 -4.25691
355 1 7.1637 12.6549 58.1584 -4.35001
356 1 6.03111 11.5119 -2.70512 -4.46158
357 1 6.24954 14.549 0.836749 -4.4118
358 1 9.03464 12.3678 1.25663 -4.4801
359 1 8.28574 14.1025 -2.84832 -4.81458
360 1 10.19 10.4448 58.1661 -4.88343
361 1 9.2081 12.4696 -1.1528 -4.78711
362 1 12.0024 9.2782 -1.15531 -4.90309
363 1 12.1057 12.1201 57.7921 -4.34385
364 1 10.74 11.0064 -2.15475 -4.2803
365 1 10.5583 14.0775 1.41207 -4.44991
366 1 13.3655 10.993 1.63927 -4.53373
367 1 12.5559 12.5564 -2.40956 -4.45696
368 1 15.1819 9.73266 58.1615 -4.18187
369 1 13.6301 11.0454 -0.773575 -4.36133
370 1 15.1139 9.62758 -1.88758 -4.29851
371 1 -13.3439 15.2832 -0.921452 -4.26046
372 1 -12.529 15.7551 1.30646 -4.10989
373 1 -9.1446 15.4008 58.2025 -4.44936
374 1 -8.00649 15.1903 -1.47847 -4.49042
375 1 -8.36846 17.5499 57.8856 -4.46987
376 1 -9.21968 16.9863 -2.54094 -4.41366
377 1 -6.40035 15.8675 0.0308147 -4.70111
378 1 -7.23536 18.1396 -2.68605 -3.59568
379 1 -5.12458 15.6799 58.3573 -4.52283
380 1 -5.34422 17.6825 -1.1699 -4.59949
381 1 -2.61633 15.317 -1.32931 -4.51285
382 1 -2.45265 18.2196 58.331 -4.48462
383 1 -3.68082 16.8811 -2.83772 -4.41359
384 1 -5.25915 18.8515 0.952423 -4.04114
385 1 -1.6361 16.3163 0.655925 -4.48207
386 1 -0.60418 18.7073 -2.99483 -3.68624
387 1 0.111448 15.178 -4.01591 -4.49657
388 1 -0.315698 17.5568 -0.849927 -4.58054
389 1 2.58889 14.9658 -0.885664 -4.41014
390 1 2.70003 17.672 -3.10532 -4.44978
391 1 1.11767 16.3108 -2.1754 -4.66969
392 1 1.00689 18.8254 0.620517 -4.35887
393 1 3.48339 16.3848 0.784845 -4.47575
394 1 2.63824 19.1114 -1.21269 -4.24501
395 1 5.18574 15.3916 58.3509 -3.93183
396 1 4.71245 18.0429 -0.428426 -4.42884
397 1 8.95202 16.1703 -1.77736 -4.26642
398 1 9.61574 17.5081 -3.59818 -4.37087
399 1 6.69187 15.9281 -2.52956 -4.41239
400 1 4.23407 19.5066 1.56584 -4.27019
401 1 7.4915 16.4417 1.78397 -4.45089
402 1 9.8537 14.4911 57.9872 -4.51109
403 1 11.0788 13.9928 -0.929687 -4.15134
404 1 11.0159 15.6234 -2.84225 -4.40802
405 1 1.4023 19.6622 -3.2035 -4.38782
406 1 -12.3899 -15.5933 1.15077 -4.32024
407 1 -7.34571 -17.7111 1.26877 -3.47552
408 1 -8.88541 -15.7902 6.29009 -3.58313
409 1 -6.48422 -18.3109 6.96767 -4.17241
410 1 -6.21979 -16.7515 3.11719 -4.48515
411 1 -5.11015 -17.5639 5.07382 -4.5012
412 1 -2.39434 -18.0722 2.05372 -4.3167
413 1 -3.29555 -18.7628 4.33294 -3.64994
414 1 -3.40721 -16.382 6.1931 -4.51769
415 1 -1.50031 -18.8645 5.94778 -4.04867
416 1 -0.996233 -16.5633 3.38429 -4.62173
417 1 1.32716 -19.913 -0.556227 -4.14643
418 1 0.333647 -17.9979 4.68242 -4.49702
419 1 2.60046 -17.6485 1.74261 -4.52474
420 1 0.754885 -18.9198 2.63214 -3.74487
421 1 1.38128 -16.4799 6.23718 -4.45882
422 1 4.53483 -18.8107 7.41304 -4.40492
423 1 3.86109 -16.877 3.7123 -4.42056
424 1 5.50428 -17.9233 5.24341 -4.38928
425 1 8.05919 -17.5713 1.74241 -4.46335
426 1 7.57298 -17.6777 4.06004 -3.48174
427 1 6.22004 -16.2224 6.74549 -4.42308
428 1 8.50959 -15.7927 3.26022 -4.57034
429 1 12.9449 -14.534 7.93612 -4.47255
430 1 -17.2398 -9.84222 3.93775 -4.21456
431 1 -15.7739 -11.7235 3.68573 -4.12326
432 1 -12.9629 -14.4367 3.0208 -3.92904
433 1 -12.8201 -12.3828 1.61419 -4.83058
434 1 -14.881 -13.4846 2.15219 -4.27967
435 1 -14.4214 -11.1931 5.60316 -4.98158
436 1 -11.872 -13.7393 5.59429 -4.27684
437 1 -11.5086 -11.2825 3.29664 -4.44578
438 1 -10.0542 -15.4294 1.26294 -4.13437
439 1 -10.1024 -12.58 4.60413 -4.60361
440 1 -7.54975 -15.2206 4.43622 -4.59613
441 1 -7.61185 -12.558 1.90048 -4.59886
442 1 -9.10095 -14.062 3.02431 -4.50259
443 1 -9.16554 -11.0878 6.38374 -4.4183
444 1 -6.46391 -13.7429 5.94916 -4.52433
445 1 -6.44925 -11.0873 3.41292 -4.50092
446 1 -4.77668 -15.2807 1.88335 -4.59835
447 1 -4.93921 -12.3172 4.73282 -4.58759
448 1 -2.09006 -15.0784 4.79595 -4.45052
449 1 -2.51009 -12.4852 1.8937 -4.58053
450 1 -3.69171 -13.9053 3.43511 -4.56552
451 1 -3.79422 -11.2773 6.52904 -4.48752
452 1 -1.29877 -13.5249 6.46211 -4.5239
453 1 -1.10375 -11.1627 3.44957 -4.55365
454 1 0.0162131 -15.0938 1.8775 -4.54174
455 1 0.287114 -12.4686 4.97177 -4.5545
456 1 2.80007 -15.1043 4.9356 -4.57231
457 1 2.65082 -12.5243 2.06083 -4.60352
458 1 1.35849 -13.9698 3.42071 -4.55445
459 1 1.2674 -11.1604 6.68937 -4.50712
460 1 3.68186 -13.7881 6.62849 -4.47907
461 1 3.87881 -11.0676 3.55835 -4.50099
462 1 5.03351 -15.265 2.32348 -4.4368
463 1 5.03784 -12.3849 5.34999 -4.53251
464 1 7.682 -14.786 5.34607 -4.37895
465 1 7.45236 -12.3374 2.22609 -4.44946
466 1 6.20041 -13.6322 3.81981 -4.51394
467 1 6.2792 -11.1855 6.93903 -4.55108
468 1 9.14835 -13.5967 6.75118 -4.46617
469 1 8.93659 -11.2373 3.8094 -4.58516
470 1 10.811 -15.9666 3.02019 -3.62816
471 1 10.4949 -12.6345 5.03856 -4.53252
472 1 13.3861 -14.5474 5.39384 -3.5994
473 1 13.2255 -12.5402 2.09517 -4.37636
474 1 11.9867 -13.9592 3.58242 -4.64897
475 1 11.4918 -11.1242 6.54388 -4.4775
476 1 13.047 -12.2398 7.92793 -4.67726
477 1 14.4798 -11.029 3.61263 -4.475
478 1 14.779 -12.5965 5.41162 -3.70022
479 1 15.4775 -12.2497 7.66066 -4.45558
480 1 -17.7121 -7.87197 2.46308 -4.49892
481 1 -18.7112 -4.79128 8.40679 -4.34364
482 1 -16.8345 -8.8315 6.13109 -4.36606
483 1 -16.4005 -6.44913 3.82606 -4.65348
484 1 -15.3627 -9.90602 2.32662 -4.57515
485 1 -15.0137 -7.5161 5.35943 -4.58502
486 1 -12.6263 -9.83431 4.91291 -4.39321
487 1 -12.4644 -7.62548 1.85781 -4.49293
488 1 -13.9195 -8.43068 3.54309 -4.60253
489 1 -13.7232 -6.13098 6.87612 -4.51117
490 1 -11.7794 -8.77496 6.93126 -4.36239
491 1 -11.2683 -6.27907 3.5108 -4.47632
492 1 -10.0063 -10.0583 1.97108 -4.49646
493 1 -10.3913 -7.57191 5.34917 -4.4621
494 1 -7.59998 -9.96263 5.01099 -4.51988
495 1 -7.70281 -7.42663 1.97124 -4.47502
496 1 -9.03699 -8.69099 3.63317 -4.48368
497 1 -8.7896 -6.31559 6.58384 -4.55018
498 1 -6.34351 -8.83048 6.64039 -4.52737
499 1 -6.40264 -6.30248 3.6201 -4.56794
500 1 -5.01461 -9.95346 1.92135 -4.54383
501 1 -5.06613 -7.55561 5.05838 -4.52724
502 1 -2.38374 -10.0224 5.11334 -4.57039
503 1 -2.60757 -7.53733 2.07509 -4.55063
504 1 -3.79286 -8.84375 3.61654 -4.54352
505 1 -3.98956 -6.15883 6.70069 -4.53055
506 1 -1.25339 -8.55999 6.56639 -4.54422
507 1 -1.37833 -6.19551 3.60111 -4.51157
508 1 0.352111 -9.99705 2.02353 -4.53181
509 1 -0.0103398 -7.25409 5.10605 -4.49089
510 1 2.56994 -9.90547 5.1656 -4.52633
511 1 2.51407 -7.4523 1.94363 -4.5273
512 1 1.30529 -8.59133 3.56705 -4.51162
513 1 1.27099 -6.19118 6.84171 -4.47659
514 1 3.90247 -8.67116 6.84819 -4.46796
515 1 3.71338 -6.2681 3.57347 -4.51445
516 1 5.18898 -9.82481 2.00886 -4.52338
517 1 5.0678 -7.53411 5.14641 -4.48505
518 1 7.71394 -9.93921 5.36116 -4.52011
519 1 7.59057 -7.2993 2.17803 -4.58227
520 1 6.47394 -8.73499 3.6956 -4.52866
521 1 6.39691 -6.22955 6.7585 -4.52409
522 1 9.1381 -8.60973 6.81109 -4.59407
523 1 8.79507 -6.02171 3.76095 -4.53908
524 1 10.3075 -9.97866 2.45768 -4.57031
525 1 10.3388 -7.19538 5.29339 -4.46994
526 1 13.0019 -9.88638 5.20363 -4.56936
527 1 12.8372 -7.21439 2.31616 -4.45415
528 1 11.5591 -8.60282 3.89239 -4.60053
529 1 11.4472 -6.24995 7.20057 -4.53823
530 1 14.154 -8.51111 6.8394 -4.49512
531 1 13.7337 -5.95984 4.1775 -4.41895
532 1 16.0352 -9.7075 2.12424 -4.15267
533 1 15.3454 -7.0401 5.48267 -4.6961
534 1 16.5546 -5.89205 2.41908 -4.43396
535 1 16.5244 -7.9362 3.68985 -3.55935
536 1 16.5884 -5.90234 7.2395 -4.03736
537 1 18.0164 -4.30737 3.24342 -4.47177
538 1 -17.8134 -5.07454 4.92944 -4.5053
539 1 -17.013 -2.95629 2.05645 -4.33825
540 1 -18.7921 -4.02107 3.04317 -4.46974
541 1 -19.2184 -1.83242 4.08724 -3.80635
542 1 -16.3323 -3.70407 6.15651 -4.56078
543 1 -16.8599 -1.09778 3.65031 -5.30305
544 1 -14.934 -5.56509 2.30351 -4.42276
545 1 -15.0256 -2.20567 4.98955 -4.27386
546 1 -12.6542 -5.07651 4.99916 -4.51377
547 1 -12.8098 -2.42799 1.83296 -4.51844
548 1 -14.0695 -3.78408 3.53327 -4.46954
549 1 -13.7271 -1.26793 6.71826 -4.39686
550 1 -11.5148 -3.76321 6.59006 -4.47707
551 1 -11.4988 -1.07976 3.34251 -4.49923
552 1 -10.1065 -4.76507 2.18357 -4.50465
553 1 -10.3696 -2.31315 5.07643 -4.53203
554 1 -7.55932 -4.95752 5.07894 -4.53749
555 1 -7.65037 -2.45999 1.9634 -4.47903
556 1 -8.90038 -3.50912 3.67078 -4.54958
557 1 -9.05676 -1.07191 6.68481 -4.5547
558 1 -6.40232 -3.66298 6.70807 -4.52382
559 1 -6.50911 -1.1541 3.71189 -4.50253
560 1 -5.08742 -4.99922 2.11019 -4.54112
561 1 -5.04423 -2.4197 5.15969 -4.54144
562 1 -2.45359 -4.85924 5.30061 -4.50665
563 1 -2.58608 -2.19752 2.29441 -4.52822
564 1 -3.79811 -3.70773 3.58682 -4.55071
565 1 -3.91708 -1.16788 6.9161 -4.49512
566 1 -1.2873 -3.52927 6.94418 -4.50806
567 1 -1.18824 -1.0182 3.87377 -4.52603
568 1 -0.234944 -4.82926 2.06079 -4.55399
569 1 -0.00751951 -2.3399 5.32281 -4.47092
570 1 2.52016 -4.97187 5.15285 -4.44896
571 1 2.45359 -2.36755 2.20496 -4.5039
572 1 1.12883 -3.75414 3.6579 -4.53964
573 1 1.24718 -1.19671 7.03927 -4.49158
574 1 3.71184 -3.76255 6.98044 -4.4223
575 1 3.63026 -0.970135 3.82922 -4.50867
576 1 5.00276 -4.81845 2.11005 -4.53206
577 1 4.93365 -2.34037 5.27005 -4.49847
578 1 7.61483 -4.6369 5.40184 -4.50194
579 1 7.67237 -2.42393 2.25292 -4.51492
580 1 6.24644 -3.61949 3.73296 -4.52464
581 1 6.2871 -1.274 6.87358 -4.54864
582 1 8.94441 -3.66039 7.15036 -4.52138
583 1 8.85796 -1.28235 3.99787 -4.54954
584 1 10.1881 -4.73654 2.49867 -4.45016
585 1 10.1666 -2.38969 5.61486 -4.54962
586 1 12.6807 -4.71729 5.89868 -4.5518
587 1 12.9855 -2.4399 2.82244 -4.32539
588 1 11.5154 -3.63683 4.21075 -4.54695
589 1 11.2076 -0.981398 7.10566 -4.52689
590 1 13.969 -3.20374 7.2844 -4.54542
591 1 13.8741 -0.913455 4.31464 -4.53577
592 1 14.6508 -4.27282 2.71192 -4.95057
593 1 15.3605 -1.86376 5.9682 -4.50289
594 1 17.2455 -4.39436 5.54699 -3.56564
595 1 18.3318 -2.42946 1.66911 -4.3248
596 1 16.2988 -2.94324 4.03407 -4.41102
597 1 16.6492 -0.0490335 6.85174 -4.35611
598 1 18.6493 -0.681869 7.89606 -4.46724
599 1 19.3669 -0.641474 3.02818 -4.34424
600 1 -18.8118 -0.133179 2.53782 -4.07408
601 1 -17.2726 0.370242 5.57476 -4.48314
602 1 -17.1378 2.61416 2.74822 -4.65136
603 1 -18.6674 1.69823 4.18149 -4.51027
604 1 -18.0391 3.61373 5.63122 -4.46624
605 1 -16.0686 1.57569 7.09474 -4.54105
606 1 -16.2422 4.23999 4.15334 -4.55443
607 1 -15.0659 -0.203882 2.18696 -4.34144
608 1 -14.7975 2.7163 5.21091 -4.40814
609 1 -12.5022 0.0318726 5.15297 -4.4497
610 1 -12.7682 2.69352 1.98237 -4.47629
611 1 -13.7249 1.2516 3.49662 -4.46448
612 1 -13.4789 3.84335 6.67868 -4.58189
613 1 -11.3644 1.42116 6.70742 -4.45553
614 1 -11.5355 4.13741 3.46839 -4.42617
615 1 -9.97979 0.14716 2.0044 -4.51949
616 1 -10.1332 2.70956 5.04473 -4.50948
617 1 -7.52212 0.108538 5.32302 -4.49681
618 1 -7.89551 2.66343 1.85408 -4.48746
619 1 -8.73856 1.3828 3.68764 -4.47347
620 1 -8.80728 3.96484 6.57316 -4.57423
621 1 -6.06065 1.28004 6.59505 -4.50277
622 1 -6.44842 3.7315 3.32066 -4.51658
623 1 -5.19988 0.298119 2.22462 -4.50466
624 1 -5.04299 2.88051 5.03597 -4.46299
625 1 -2.60215 0.0987566 5.47922 -4.48902
626 1 -2.41586 2.57259 2.04155 -4.5372
627 1 -3.63468 1.32443 3.73794 -4.53744
628 1 -3.63672 3.81004 6.75807 -4.45431
629 1 -1.09104 1.29298 6.95327 -4.45587
630 1 -1.06492 3.81383 3.5539 -4.52897
631 1 0.16078 0.0776855 2.31295 -4.45048
632 1 0.00130588 2.54802 5.22434 -4.4296
633 1 2.35466 0.305121 5.43196 -4.51177
634 1 2.81885 2.76368 2.09346 -4.49862
635 1 1.37344 1.62376 3.64779 -4.46911
636 1 1.25478 3.90679 6.73546 -4.56297
637 1 3.84565 1.53297 6.85516 -4.54736
638 1 4.04022 4.05687 3.76968 -4.48096
639 1 4.98475 0.100114 2.24267 -4.51319
640 1 5.2504 2.59218 5.33849 -4.52756
641 1 7.65066 0.134131 5.46761 -4.39457
642 1 7.55305 2.75666 2.28029 -4.5068
643 1 6.42104 1.24332 3.74881 -4.54757
644 1 6.37294 4.0405 6.77801 -4.54366
645 1 8.94841 1.70836 7.21287 -4.39597
646 1 8.78684 3.90661 3.84376 -4.41222
647 1 10.1406 0.00260132 2.43999 -4.54826
648 1 10.1277 2.93198 5.63641 -4.42258
649 1 12.4811 0.45115 5.75672 -4.5182
650 1 12.5052 2.65505 2.54198 -4.55112
651 1 11.1187 1.58218 4.03989 -4.46717
652 1 11.4447 4.11171 7.07804 -4.43216
653 1 13.758 1.58583 7.44732 -4.50506
654 1 13.7423 4.10567 3.98986 -4.49847
655 1 15.0775 -0.0872719 2.51302 -4.50181
656 1 14.9547 2.60145 5.54599 -4.40232
657 1 17.7334 -0.0945791 4.70111 -4.55457
658 1 17.2646 2.25815 1.84063 -4.55431
659 1 16.2581 1.39278 3.73273 -4.55037
660 1 16.3637 4.13105 6.74683 -4.37803
661 1 18.9229 1.88688 5.4417 -4.40101
662 1 18.8932 3.64631 2.78283 -4.53561
663 1 20.083 1.70931 3.28002 -4.2102
664 1 -18.5525 5.92974 5.56397 -4.41219
665 1 -16.97 7.46105 1.99843 -4.44591
666 1 -18.0015 5.66955 3.16566 -4.38562
667 1 -16.3093 6.51641 6.37481 -4.4294
668 1 -16.1071 9.07929 3.51357 -4.27432
669 1 -15.7407 4.75766 0.74975 -4.5175
670 1 -14.8649 7.21144 4.55169 -4.68414
671 1 -12.8639 5.46687 4.97165 -4.26406
672 1 -12.9075 7.65993 1.67452 -4.42544
673 1 -14.7558 6.35327 2.24647 -4.3316
674 1 -13.7886 8.86474 6.06973 -4.47993
675 1 -11.2752 6.46666 6.37354 -4.64525
676 1 -11.5132 8.48319 3.39336 -4.42352
677 1 -10.3144 5.23861 1.6834 -4.48597
678 1 -9.91787 7.75542 4.94884 -4.51008
679 1 -7.64214 5.2081 4.88512 -4.46896
680 1 -7.57814 7.66698 1.91917 -4.52907
681 1 -8.92258 6.35392 3.32268 -4.53834
682 1 -8.63613 9.00921 6.46373 -4.49649
683 1 -6.42226 6.39845 6.59849 -4.53807
684 1 -6.24382 8.94504 3.43237 -4.46708
685 1 -5.10363 5.12513 1.97366 -4.5834
686 1 -5.00054 7.65768 5.19315 -4.50516
687 1 -2.51891 5.07952 5.01891 -4.51177
688 1 -2.61661 7.42701 2.08465 -4.50909
689 1 -3.91659 6.2216 3.62916 -4.48352
690 1 -3.77505 9.02508 6.6314 -4.5594
691 1 -1.31925 6.32944 6.60793 -4.55709
692 1 -1.53179 8.76148 3.74598 -4.51135
693 1 0.0672577 5.07554 1.94111 -4.52255
694 1 0.0120162 7.58181 5.11164 -4.57365
695 1 2.58695 5.23975 5.25002 -4.54729
696 1 2.53356 7.7063 2.14162 -4.56595
697 1 1.23841 6.24713 3.54843 -4.50568
698 1 1.11514 8.98508 6.736 -4.50847
699 1 3.7009 6.72805 6.66131 -4.54381
700 1 3.77273 8.98713 3.7522 -4.47636
701 1 5.09719 5.32916 2.12047 -4.51265
702 1 5.31379 7.76293 5.30919 -4.469
703 1 7.67619 5.32016 5.31887 -4.49567
704 1 7.67119 7.86593 2.008 -4.41054
705 1 6.37102 6.5242 3.60643 -4.44156
706 1 6.44721 9.16303 6.97683 -4.42424
707 1 8.90693 6.84093 6.87535 -4.41919
708 1 8.76687 8.96481 3.78358 -4.58966
709 1 9.72435 5.24846 2.1415 -4.44834
710 1 10.3272 8.06463 5.34632 -4.33704
711 1 12.4632 5.55868 5.30752 -4.38956
712 1 12.5062 7.59908 2.30535 -4.52414
713 1 10.89 6.52642 3.66215 -4.51486
714 1 11.6868 9.67168 8.06609 -4.41215
715 1 13.5392 6.67384 7.17376 -4.32339
716 1 13.4473 8.50365 4.29546 -4.22269
717 1 14.9449 5.15454 2.09075 -4.3911
718 1 15.0171 8.40537 6.1333 -4.71691
719 1 17.7483 3.95736 4.83431 -4.29693
720 1 18.1376 7.02337 2.39075 -4.24099
721 1 15.9831 6.86221 3.40518 -4.48387
722 1 16.5476 9.75924 7.40389 -4.08274
723 1 17.8044 6.30499 4.81838 -4.20096
724 1 -16.0045 10.8225 5.20539 -3.56957
725 1 -15.2144 10.3276 1.56167 -4.51328
726 1 -14.8672 12.5583 3.89433 -4.67351
727 1 -12.2615 10.1433 4.83038 -4.49579
728 1 -12.103 12.4046 1.74713 -4.14139
729 1 -13.5104 10.9355 2.91617 -4.71007
730 1 -12.93 13.6663 5.00549 -4.03768
731 1 -10.9241 11.4829 6.21629 -4.60564
732 1 -11.0232 13.9566 3.46157 -5.39671
733 1 -10.0818 9.87205 1.89458 -4.40446
734 1 -9.49161 12.6964 4.83945 -4.31286
735 1 -7.24481 10.2975 4.91797 -4.45863
736 1 -7.73975 12.6038 1.69639 -4.58313
737 1 -8.71509 11.2097 3.3139 -4.49738
738 1 -8.07208 14.135 6.33501 -4.4657
739 1 -6.14708 11.6336 6.52024 -4.32553
740 1 -6.13052 13.9473 2.95378 -4.6605
741 1 -4.94924 10.3055 1.99723 -4.53569