ITEM: TIMESTEP
314000
ITEM: NUMBER OF ATOMS
4050
ITEM: BOX BOUNDS ss ss pp
-2.0489128662906428e+01 2.0774384456736811e+01
-2.0128512729561081e+01 2.0077411263396698e+01
-4.2633350000000005e+00 5.8573335000000000e+01
ITEM: ATOMS id type x y z c_peratom
1 1 -11.9056 -14.737 -1.85916 -3.86627
2 1 -7.23123 -17.421 -3.62706 -4.26287
3 1 -8.78638 -16.8479 -0.355646 -4.59321
4 1 -6.81205 -18.2606 -0.317731 -3.6397
5 1 -5.88184 -15.9459 -2.51659 -4.70695
6 1 -4.86388 -17.7589 -1.41777 -4.65484
7 1 -2.38542 -18.0315 58.3707 -4.54265
8 1 -4.57032 -18.6018 -3.58499 -3.8903
9 1 -3.59386 -16.6141 0.329863 -4.45051
10 1 -0.309524 -18.9068 0.558706 -4.41097
11 1 -1.60456 -16.3377 -2.91715 -4.48421
12 1 0.350841 -18.7775 -2.78953 -4.04699
13 1 -0.365033 -17.323 -1.11819 -4.56607
14 1 2.88439 -17.5441 -4.20639 -4.60217
15 1 2.4898 -19.5017 -3.00963 -4.3714
16 1 1.33625 -16.1547 -0.0119532 -4.63082
17 1 3.2638 -18.9102 -0.901134 -4.2131
18 1 4.05074 -16.2376 -2.69095 -4.65843
19 1 5.32038 -17.9204 -1.63995 -4.45364
20 1 6.72333 -18.0659 -3.61946 -4.32295
21 1 9.18598 -16.8937 -0.50563 -4.28097
22 1 6.09426 -16.554 0.16364 -4.42862
23 1 8.54218 -16.666 -2.86345 -4.14917
24 1 10.6017 -15.2372 0.48961 -4.6263
25 1 -14.7334 -12.1409 -2.19322 -4.07805
26 1 -15.3389 -13.2273 -0.2691 -4.29043
27 1 -13.9438 -15.1612 -0.795553 -4.38891
28 1 -12.3819 -12.8408 58.4923 -4.38789
29 1 -13.8907 -14.2151 -2.99723 -4.4834
30 1 -13.9741 -11.244 -0.24295 -4.21006
31 1 -11.2493 -13.8136 0.159537 -4.88183
32 1 -11.2871 -11.3473 -2.83547 -4.54235
33 1 -10.1017 -15.3832 -4.05505 -4.04833
34 1 -9.79192 -12.4088 -1.34017 -4.39074
35 1 -7.52565 -15.0382 -1.20287 -4.6352
36 1 -7.34985 -12.5957 -4.23815 -4.59298
37 1 -8.78684 -13.832 -2.8722 -4.61874
38 1 -8.63188 -11.0424 0.26118 -4.43832
39 1 -6.34794 -13.7843 0.41071 -4.4882
40 1 -6.09674 -11.2987 -2.76619 -4.48753
41 1 -4.73106 -15.1949 58.4001 -4.55142
42 1 -4.96777 -12.8608 -1.33187 -4.51
43 1 -2.6104 -15.0427 -1.10765 -4.43801
44 1 -2.25761 -12.4145 58.2844 -4.51207
45 1 -3.53737 -13.7431 -2.99017 -4.48134
46 1 -3.68902 -11.4107 0.0923658 -4.59583
47 1 -1.0416 -13.7864 0.147136 -4.57611
48 1 -1.1978 -11.2151 -2.76634 -4.54342
49 1 -0.0241279 -15.1891 -4.20984 -4.5871
50 1 0.219689 -12.3788 -1.27604 -4.53703
51 1 2.66556 -14.8869 -1.43669 -4.56847
52 1 2.71673 -12.6566 58.3325 -4.53584
53 1 1.26131 -13.6506 -2.92776 -4.53408
54 1 1.37825 -10.9438 0.229624 -4.51083
55 1 4.06721 -13.8424 0.24657 -4.51911
56 1 3.87853 -11.2963 -2.95862 -4.49549
57 1 5.06024 -14.9272 58.5096 -4.59419
58 1 5.31691 -12.4715 -1.36075 -4.465
59 1 7.53628 -15.2139 -1.14477 -5.00103
60 1 7.90942 -12.6112 58.1094 -4.15357
61 1 6.60084 -13.7622 -2.96654 -4.32881
62 1 6.39346 -11.0566 0.434581 -4.50852
63 1 8.88368 -13.6292 0.154299 -4.45994
64 1 8.53624 -11.1802 -2.40621 -4.31029
65 1 10.0589 -15.4704 58.4609 -4.11561
66 1 10.1555 -12.1217 -1.12581 -4.35469
67 1 12.1762 -14.7163 -1.22157 -4.25779
68 1 11.7975 -11.7168 -3.92508 -4.43349
69 1 10.5959 -13.6269 -2.88409 -4.84608
70 1 11.0619 -11.1615 0.839679 -4.53539
71 1 13.7581 -13.0843 -0.207833 -3.79177
72 1 13.8113 -11.0415 -1.4977 -5.05095
73 1 15.6698 -12.2838 -2.28118 -3.74264
74 1 16.0122 -10.4445 -0.833167 -4.10375
75 1 -17.4786 -7.69915 57.6118 -4.18811
76 1 -18.5155 -5.92767 1.25924 -3.99705
77 1 -16.4503 -8.62124 0.444363 -3.58755
78 1 -16.5652 -6.37883 -3.11885 -4.27515
79 1 -15.1292 -10.4035 -4.18767 -4.13205
80 1 -15.2788 -7.5497 -1.25234 -4.4697
81 1 -12.3792 -9.75632 -1.28151 -4.43231
82 1 -12.6705 -7.44565 -4.15762 -4.48269
83 1 -14.0254 -8.83731 -2.80188 -4.58393
84 1 -13.6417 -6.61914 0.33352 -4.44067
85 1 -11.1486 -8.87453 0.605415 -4.46124
86 1 -11.345 -6.19851 -2.59119 -4.52696
87 1 -9.91345 -10.0032 -4.02828 -4.59519
88 1 -10.08 -7.28666 -0.949414 -4.50453
89 1 -7.27381 -9.96236 -1.35792 -4.53021
90 1 -7.37579 -7.40985 58.5302 -4.52383
91 1 -8.74856 -8.55351 -2.59799 -4.56362
92 1 -8.61018 -6.09109 0.512776 -4.55283
93 1 -6.17259 -8.63608 0.291313 -4.47051
94 1 -6.09772 -6.17943 -2.73435 -4.53721
95 1 -5.01424 -10.1908 58.4058 -4.44684
96 1 -4.83913 -7.55465 -1.11327 -4.42391
97 1 -2.40751 -9.89082 -1.21767 -4.53979
98 1 -2.43376 -7.53208 58.4829 -4.50612
99 1 -3.75387 -8.80076 -2.87489 -4.51011
100 1 -3.77181 -6.03868 0.385968 -4.55424
101 1 -1.05368 -8.51376 0.303512 -4.52616
102 1 -1.15945 -6.17209 -2.80678 -4.5622
103 1 0.170373 -9.9861 58.4934 -4.54013
104 1 0.208295 -7.29685 -1.29798 -4.52625
105 1 2.63605 -9.81448 -1.33884 -4.42385
106 1 2.63935 -7.2803 58.4193 -4.5555
107 1 1.40843 -8.62178 -2.86575 -4.55946
108 1 1.49724 -6.03854 0.33898 -4.50564
109 1 3.82077 -8.70491 0.433359 -4.47236
110 1 4.0483 -6.19116 -2.8236 -4.47458
111 1 5.25478 -10.1233 58.367 -4.537
112 1 5.10907 -7.43483 -1.08055 -4.4229
113 1 7.50665 -9.62092 -1.02309 -4.52022
114 1 7.75552 -7.61018 -4.24965 -4.52073
115 1 6.26141 -8.72449 -2.87136 -4.43817
116 1 6.38674 -6.1823 0.508484 -4.49555
117 1 8.74451 -8.44338 0.590278 -4.46553
118 1 8.57873 -6.175 -2.54799 -4.44686
119 1 10.1394 -10.0349 -3.72973 -4.49666
120 1 9.9658 -7.13968 -0.874824 -4.51826
121 1 12.3897 -9.55118 -0.328948 -4.43731
122 1 12.2572 -7.393 -3.98357 -4.46477
123 1 11.2259 -8.53907 -2.26283 -4.46706
124 1 11.3068 -5.88806 0.712492 -4.4625
125 1 14.0688 -8.19102 0.810473 -4.60329
126 1 13.39 -6.02413 -2.3997 -4.65749
127 1 14.3032 -9.77589 -3.5591 -4.42929
128 1 15.0681 -7.26135 -1.18786 -4.64692
129 1 16.3512 -6.7475 -4.07987 -4.50553
130 1 16.2712 -8.73315 -2.59656 -4.47492
131 1 16.3576 -5.51485 -0.385891 -4.50758
132 1 18.3152 -5.30986 -4.10368 -3.83099
133 1 -17.9195 -5.3249 -1.52322 -3.85613
134 1 -17.5664 -2.67221 -4.10676 -4.98764
135 1 -18.8925 -3.2184 -2.1764 -4.27932
136 1 -17.8553 -2.17846 -0.368073 -4.6212
137 1 -16.4895 -4.97398 0.394512 -4.50222
138 1 -16.2225 -0.97418 -3.16363 -4.59154
139 1 -14.9019 -5.2285 58.4591 -4.55035
140 1 -15.656 -2.28862 -1.39153 -4.43325
141 1 -12.6751 -4.93326 -1.20658 -4.54053
142 1 -12.7284 -2.61957 58.4866 -4.44861
143 1 -14.1883 -3.72613 -2.67698 -4.41263
144 1 -14.1395 -1.27718 0.239073 -4.41757
145 1 -11.3835 -3.76028 0.421435 -4.55183
146 1 -11.3868 -1.44224 -2.6775 -4.51437
147 1 -10.0056 -4.93219 -4.20386 -4.50073
148 1 -9.85854 -2.53049 -1.07454 -4.48166
149 1 -7.44587 -5.00036 -1.26569 -4.48703
150 1 -7.32864 -2.45043 -4.18217 -4.51468
151 1 -8.66553 -3.69437 -2.74553 -4.51872
152 1 -8.71239 -1.18746 0.631682 -4.51637
153 1 -6.26179 -3.73195 0.259192 -4.45395
154 1 -6.20663 -1.0309 -2.54102 -4.52096
155 1 -4.83129 -4.95639 58.5378 -4.49093
156 1 -4.88388 -2.38227 -1.13089 -4.54737
157 1 -2.39882 -4.8917 -1.1731 -4.52364
158 1 -2.24284 -2.35425 58.4731 -4.46284
159 1 -3.54132 -3.54113 -2.77065 -4.53581
160 1 -3.78745 -1.07008 0.428272 -4.50895
161 1 -1.13756 -3.4028 0.355498 -4.49682
162 1 -1.11585 -1.13734 -2.68708 -4.53013
163 1 0.174474 -4.76907 -4.2288 -4.50784
164 1 0.233413 -2.36672 -1.12164 -4.53128
165 1 2.8911 -4.84925 -1.19219 -4.50004
166 1 2.68026 -2.39504 -4.28089 -4.52899
167 1 1.56104 -3.64168 -2.63804 -4.51452
168 1 1.38165 -0.955114 0.3199 -4.50485
169 1 3.81429 -3.49417 0.58122 -4.51052
170 1 3.86366 -1.00166 -2.69903 -4.52662
171 1 5.23178 -4.76384 -4.37863 -4.48812
172 1 5.08308 -2.2455 -0.982747 -4.51122
173 1 7.51623 -4.75321 -0.933889 -4.47247
174 1 7.57611 -2.4013 -4.18634 -4.49554
175 1 6.28556 -3.52159 -2.59192 -4.4454
176 1 6.33337 -0.932019 0.551691 -4.49909
177 1 8.76114 -3.51303 0.717568 -4.51575
178 1 8.73882 -0.979536 -2.58314 -4.46821
179 1 9.85061 -4.88636 -4.18354 -4.47657
180 1 9.95963 -2.11272 -0.789722 -4.35455
181 1 12.3767 -4.47264 -0.983952 -4.43216
182 1 12.3056 -2.39909 -4.06056 -4.52486
183 1 10.8487 -3.57606 -2.6057 -4.40024
184 1 11.3892 -1.37667 1.06752 -4.40622
185 1 14.4188 -4.25525 0.237141 -4.40171
186 1 13.4094 -1.38754 -2.15145 -4.4768
187 1 14.7373 -5.02337 -3.95426 -4.52692
188 1 15.2497 -2.4113 -1.02188 -4.54027
189 1 17.8914 -4.26362 -1.93573 -4.47225
190 1 17.5292 -2.11276 58.4246 -4.59104
191 1 16.1171 -3.31949 -3.0423 -4.6779
192 1 16.3879 -1.4264 0.868301 -4.34344
193 1 19.1053 -2.28651 -0.831047 -4.04006
194 1 18.9362 -0.739604 -2.79777 -3.86902
195 1 -19.4526 -1.3387 -3.49901 -4.34618
196 1 -18.2616 0.151333 -0.0981012 -4.2558
197 1 -17.7504 2.36329 -3.95359 -4.29434
198 1 -18.1334 0.331403 -2.69115 -4.40247
199 1 -17.736 4.15558 1.09491 -4.06543
200 1 -16.3026 1.33655 0.490357 -4.55037
201 1 -16.7333 3.65152 -2.23467 -4.38161
202 1 -14.912 0.165423 58.0413 -4.53249
203 1 -15.036 2.33946 -1.29536 -4.46634
204 1 -12.638 -0.0798772 -1.28503 -4.48462
205 1 -12.5465 2.63224 58.419 -4.53034
206 1 -13.759 1.21744 -2.97803 -4.46179
207 1 -13.9747 3.70407 0.215692 -4.47532
208 1 -11.4743 1.13061 0.417533 -4.51302
209 1 -11.2907 3.8016 -2.86167 -4.51319
210 1 -10.0579 -0.105857 -4.15211 -4.5423
211 1 -10.3169 2.51917 -1.10679 -4.5498
212 1 -7.59397 0.123634 -0.996056 -4.52597
213 1 -7.59946 2.39026 -4.1771 -4.43667
214 1 -8.8963 1.28597 -2.64157 -4.50657
215 1 -8.93183 3.79783 0.361644 -4.59255
216 1 -6.24025 1.31385 0.407134 -4.55279
217 1 -6.23676 3.7185 -2.65143 -4.54132
218 1 -4.9879 0.00240781 58.5268 -4.48554
219 1 -4.879 2.54111 -1.09999 -4.52609
220 1 -2.31763 0.0996546 -1.14397 -4.50334
221 1 -2.43604 2.62281 58.4641 -4.54034
222 1 -3.70401 1.2447 -2.79628 -4.53702
223 1 -3.51128 3.68769 0.401354 -4.50015
224 1 -1.04823 1.49559 0.359054 -4.46232
225 1 -1.26442 3.79431 -2.61573 -4.54413
226 1 0.121574 0.329123 -4.13919 -4.5221
227 1 0.164508 2.66593 -1.159 -4.48842
228 1 2.70253 0.34579 -1.14445 -4.52845
229 1 2.81729 2.86923 58.5666 -4.48304
230 1 1.49615 1.58906 -2.8066 -4.52086
231 1 1.28064 4.06846 0.354261 -4.5119
232 1 3.976 1.56043 0.413657 -4.56411
233 1 3.87675 4.06611 -2.47529 -4.42969
234 1 5.11198 0.292229 58.5451 -4.49081
235 1 5.29333 3.08031 -0.834817 -4.49868
236 1 7.49681 0.44587 -1.03071 -4.52812
237 1 7.48015 2.73187 -4.10609 -4.47641
238 1 6.14411 1.62108 -2.52254 -4.44666
239 1 6.53058 4.13406 0.889172 -4.49294
240 1 8.89115 1.47763 0.633165 -4.4859
241 1 8.67579 3.94388 -2.47636 -4.46832
242 1 9.92453 0.440944 -3.99461 -4.43474
243 1 10.0403 2.93524 -0.901812 -4.56093
244 1 12.5919 0.055622 -0.515558 -4.51794
245 1 12.597 2.55349 -3.55558 -4.36425
246 1 11.1201 1.27235 -2.10204 -4.48075
247 1 11.34 4.09848 0.662382 -4.3922
248 1 13.9342 1.4965 0.792077 -4.5067
249 1 13.991 4.43911 -2.48825 -4.93846
250 1 14.647 -0.0681911 -3.61789 -4.4825
251 1 15.0138 2.75605 -0.993735 -4.18044
252 1 17.7225 -0.252079 -0.690741 -4.84225
253 1 17.1232 1.92755 -4.03596 -4.34198
254 1 16.1783 0.869597 -2.12965 -4.32428
255 1 16.43 4.15266 0.56701 -4.91152
256 1 18.9218 1.08306 0.931402 -4.24204
257 1 18.7923 3.62947 -3.83062 -4.08464
258 1 19.4133 1.3348 58.4592 -4.13998
259 1 -18.029 5.50201 -1.49238 -3.89119
260 1 -17.3266 7.88681 57.5778 -4.46407
261 1 -17.9879 6.21377 -3.64386 -4.2502
262 1 -16.867 7.15628 -0.210729 -4.53377
263 1 -16.4223 8.82139 -3.21133 -3.67472
264 1 -15.8253 4.84898 -4.23678 -5.23338
265 1 -15.0686 7.8408 -1.59803 -4.64538
266 1 -12.7352 4.97936 -1.39804 -4.60147
267 1 -12.612 7.23373 58.4606 -4.51214
268 1 -14.209 6.04917 -2.93489 -4.28025
269 1 -14.0334 9.10698 0.182251 -4.52331
270 1 -11.4282 6.28606 0.0252079 -4.53178
271 1 -11.5462 8.7187 -2.83425 -4.50773
272 1 -9.90959 4.99115 58.369 -4.49563
273 1 -10.018 7.71777 -1.34465 -4.5634
274 1 -7.57752 4.96911 -1.13902 -4.57225
275 1 -7.47581 7.439 -4.17753 -4.52147
276 1 -8.85809 6.1869 -2.72013 -4.54603
277 1 -8.59757 8.74385 0.329562 -4.46021
278 1 -6.20389 6.14766 0.411134 -4.58302
279 1 -6.29323 8.63963 -2.51138 -4.51622
280 1 -5.02925 5.07844 -4.20067 -4.49861
281 1 -4.9347 7.48182 -1.02631 -4.52546
282 1 -2.56829 5.18671 -1.12888 -4.51482
283 1 -2.3475 7.71432 58.599 -4.49408
284 1 -3.69182 6.3826 -2.85066 -4.4572
285 1 -3.7304 8.83819 0.44138 -4.57178
286 1 -1.07677 6.4082 0.362601 -4.47592
287 1 -1.13906 8.9804 -2.69806 -4.4804
288 1 -0.0622118 5.09165 -4.19658 -4.52431
289 1 0.202647 7.71543 -1.14975 -4.51517
290 1 2.57841 5.59819 -0.997819 -4.53344
291 1 2.76017 7.82271 58.5071 -4.424
292 1 1.35771 6.5411 -2.851 -4.49015
293 1 1.37652 9.01841 0.480779 -4.48751
294 1 4.02822 6.64291 0.480259 -4.48016
295 1 3.80339 8.86733 -2.62041 -4.38795
296 1 5.15435 5.42822 -4.12065 -4.48459
297 1 5.25544 7.74618 -1.21167 -4.57548
298 1 7.69667 5.41441 -0.853183 -4.44643
299 1 7.3888 7.71874 58.1005 -4.44461
300 1 6.72617 6.59551 -2.69837 -4.41198
301 1 6.62206 9.16165 0.126282 -4.35063
302 1 9.07331 6.88848 0.508591 -4.44742
303 1 8.77941 8.97514 -3.25396 -4.42697
304 1 9.91153 5.29885 -4.05811 -4.59311
305 1 10.0237 7.96861 -1.46179 -4.41892
306 1 12.3268 5.45781 -1.04376 -4.36016
307 1 12.7036 7.55112 58.0874 -4.94383
308 1 11.3391 6.66457 -2.87252 -4.38904
309 1 11.6093 9.65487 1.5059 -4.69082
310 1 13.6585 6.86301 0.439118 -4.49064
311 1 13.5163 9.58523 -3.72729 -4.33208
312 1 14.5491 4.78994 58.0648 -4.43438
313 1 15.4932 7.84508 -0.6822 -4.34053
314 1 17.7075 4.58247 -1.40588 -3.84104
315 1 16.2312 6.28564 58.3752 -4.58618
316 1 15.901 5.92351 -2.05549 -4.39329
317 1 16.2358 8.4862 1.70713 -4.24302
318 1 18.5544 5.0939 0.84808 -4.13375
319 1 -15.6805 12.8211 1.44986 -3.94525
320 1 -14.6376 10.0717 -4.17855 -4.62477
321 1 -14.6754 13.3074 -0.756872 -4.04036
322 1 -12.4261 10.1704 -1.28275 -4.55603
323 1 -12.5476 12.687 -4.00159 -4.85973
324 1 -13.8573 11.6398 -2.41098 -4.28275
325 1 -13.327 13.9982 1.16938 -4.74085
326 1 -10.9471 11.1808 0.170722 -4.45746
327 1 -11.5146 14.2842 -2.36911 -4.25145
328 1 -10.0806 9.83791 58.4724 -4.60682
329 1 -9.98604 12.5867 -1.46661 -4.48429
330 1 -7.59053 10.116 -1.22277 -4.51491
331 1 -7.21693 12.4275 58.4368 -4.54364
332 1 -8.73401 11.2654 -3.02066 -4.50409
333 1 -8.93241 13.9958 0.10954 -4.4459
334 1 -6.10462 11.4449 0.219977 -4.53239
335 1 -6.01875 13.9649 -3.05363 -4.51898
336 1 -4.91599 9.66071 -4.27034 -4.44298
337 1 -4.89782 12.7989 -1.27572 -4.48874
338 1 -2.50129 10.1512 -1.09843 -4.51093
339 1 -2.47792 12.5049 58.3552 -4.53305
340 1 -3.82019 11.2921 -2.81711 -4.48871
341 1 -3.71449 14.0111 0.398393 -4.40454
342 1 -1.25623 11.357 0.562774 -4.5089
343 1 -1.30566 13.8419 -2.90397 -4.51133
344 1 0.123269 10.1699 58.4 -4.44349
345 1 -0.183311 12.6392 -1.13035 -4.47816
346 1 2.71796 10.3189 -1.01151 -4.50582
347 1 2.48659 12.615 58.7747 -4.40432
348 1 1.17939 11.3551 -2.69352 -4.44279
349 1 1.04159 13.8362 0.448611 -4.54724
350 1 4.02339 11.7851 0.371287 -4.54074
351 1 3.77453 13.8371 -2.5886 -4.55574
352 1 4.97191 10.1458 58.4175 -4.43324
353 1 5.51036 13.0241 -1.10999 -4.27362
354 1 7.70135 10.463 -1.74151 -4.35108
355 1 7.23647 12.3015 57.9416 -4.54976
356 1 6.08147 11.6385 -2.98666 -4.43579
357 1 6.02072 14.6417 0.680843 -4.39101
358 1 8.84436 12.2736 1.07116 -4.43611
359 1 8.72286 13.3513 -3.5211 -4.46962
360 1 10.4328 10.4265 -4.3616 -4.78323
361 1 9.11504 12.5047 -1.31751 -4.86922
362 1 11.9055 9.35664 -0.91569 -4.51628
363 1 12.5909 11.6886 58.3296 -4.69449
364 1 10.812 11.0639 -2.0148 -4.41261
365 1 10.399 14.0187 1.43759 -4.38358
366 1 13.4537 11.0474 1.85214 -4.43838
367 1 12.6053 12.5777 -2.06057 -4.39765
368 1 15.3872 9.81662 57.8777 -4.21178
369 1 13.7369 10.919 -0.698601 -4.46983
370 1 15.1601 9.75763 -2.11017 -4.02441
371 1 -13.2813 15.2287 -0.928322 -4.18168
372 1 -12.2173 16.0782 1.09427 -4.08007
373 1 -9.16545 15.0714 58.4487 -4.436
374 1 -7.65234 14.9973 -1.62436 -4.50044
375 1 -8.24483 17.3565 57.9904 -4.47954
376 1 -8.9761 16.6184 -2.65234 -4.4984
377 1 -6.59574 16.1569 0.037441 -4.67635
378 1 -6.96198 17.7871 -2.95052 -3.61999
379 1 -4.67705 15.4721 58.356 -4.51282
380 1 -5.2655 17.4456 -1.29707 -4.50783
381 1 -2.55046 15.1626 -1.42325 -4.48834
382 1 -2.48189 18.0963 58.4378 -4.48294
383 1 -3.67278 16.7921 -2.80609 -4.41539
384 1 -5.19542 18.9224 0.722861 -4.03336
385 1 -1.64366 16.6185 0.245709 -4.50061
386 1 -0.60414 18.7026 -3.00182 -3.70979
387 1 0.199873 15.1344 -4.17804 -4.52288
388 1 0.000598317 17.6342 -1.07366 -4.69175
389 1 2.59882 15.1753 -0.886701 -4.39283
390 1 2.67469 17.991 -3.31943 -4.41288
391 1 1.34655 16.2726 -2.40198 -4.61038
392 1 1.13049 19.1284 0.421779 -4.24777
393 1 3.00359 16.6019 0.861576 -4.38237
394 1 2.80289 19.3587 -1.45994 -4.04988
395 1 5.28746 14.8611 -4.17649 -3.65543
396 1 4.42631 18.1139 -0.217173 -4.5607
397 1 8.4381 16.9014 -2.19255 -4.33721
398 1 9.69862 17.8753 -3.93821 -4.26872
399 1 7.27268 15.0331 -2.86407 -4.55591
400 1 4.05793 19.5325 1.62021 -4.29718
401 1 7.17164 16.5471 1.67817 -4.46157
402 1 10.1747 14.7968 58.0829 -4.61342
403 1 10.9913 14.1602 -1.09485 -4.07834
404 1 10.5061 15.9276 -2.8116 -4.40694
405 1 1.28891 19.8528 -3.6666 -4.28217
406 1 -12.4869 -15.5535 1.07295 -4.25414
407 1 -7.61927 -17.5965 1.61956 -3.6715
408 1 -9.18073 -16.1585 6.21033 -3.57623
409 1 -6.27995 -18.4239 6.98676 -4.0882
410 1 -6.31776 -16.5151 3.27151 -4.60814
411 1 -5.15392 -17.7118 4.95341 -4.58353
412 1 -2.11573 -17.9142 1.82228 -4.50218
413 1 -3.2763 -18.5682 3.7499 -3.68428
414 1 -3.70775 -16.0847 5.79515 -4.48228
415 1 -1.82908 -18.7358 5.5336 -3.87798
416 1 -1.15772 -16.1372 3.03668 -4.66887
417 1 1.1919 -20.0772 -1.03012 -4.22668
418 1 0.0270462 -17.6169 4.37785 -4.66842
419 1 2.81478 -17.5697 1.0902 -4.50767
420 1 1.05564 -18.4909 2.37137 -3.6919
421 1 1.17059 -16.1497 5.81257 -4.462
422 1 4.0572 -18.7141 6.6906 -4.44703
423 1 3.70658 -16.6228 3.0424 -4.41408
424 1 5.18017 -17.6867 4.67969 -4.47097
425 1 7.94091 -17.8012 1.27278 -4.43056
426 1 7.32925 -18.0615 3.64456 -3.492
427 1 5.92636 -16.141 6.24789 -4.53038
428 1 8.12581 -15.9678 2.754 -4.60002
429 1 12.4757 -14.6648 7.62207 -4.44997
430 1 -17.2548 -9.69151 3.85363 -4.28474
431 1 -16.0306 -11.8078 3.77033 -4.14527
432 1 -12.9376 -14.215 2.90028 -4.01485
433 1 -12.6978 -12.3925 1.50331 -4.7977
434 1 -14.8884 -13.2139 2.12721 -4.19668
435 1 -14.4758 -11.4379 5.49108 -5.01273
436 1 -11.9036 -14.0499 5.44378 -4.3278
437 1 -11.499 -11.3494 3.21375 -4.45339
438 1 -10.002 -15.5133 1.34172 -4.15251
439 1 -10.227 -12.6643 4.63304 -4.59822
440 1 -7.85196 -15.2692 4.52685 -4.62211
441 1 -7.70275 -12.5245 1.69836 -4.5176
442 1 -9.0812 -13.9624 2.87969 -4.46498
443 1 -9.50959 -11.1471 6.27277 -4.40362
444 1 -6.83991 -13.7234 6.11437 -4.52003
445 1 -6.55123 -11.2805 3.29783 -4.50877
446 1 -5.05323 -15.2335 1.71998 -4.58227
447 1 -5.26746 -12.6061 4.75279 -4.54324
448 1 -2.27728 -14.7458 4.58135 -4.51854
449 1 -2.45632 -12.642 1.7282 -4.57026
450 1 -3.92016 -13.7248 3.1968 -4.56581
451 1 -3.94579 -11.3289 6.41816 -4.44437
452 1 -1.35437 -13.5572 6.45673 -4.5528
453 1 -1.24231 -11.2958 3.23627 -4.50651
454 1 0.311268 -14.8722 1.69849 -4.56827
455 1 0.144388 -12.4876 4.952 -4.4886
456 1 2.90355 -14.9496 4.58655 -4.51417
457 1 2.78929 -12.3538 1.66515 -4.50892
458 1 1.52779 -13.6308 3.26638 -4.53783
459 1 1.31034 -11.0839 6.42331 -4.57884
460 1 3.7071 -13.6928 6.38485 -4.44894
461 1 3.72171 -11.1484 3.48193 -4.46354
462 1 5.14376 -15.1334 1.89508 -4.48922
463 1 4.9456 -12.2684 5.17876 -4.46435
464 1 7.60904 -15.0088 4.92992 -4.4243
465 1 7.5661 -12.654 1.81018 -4.40587
466 1 6.18516 -13.6188 3.53477 -4.47643
467 1 6.42379 -11.3802 6.86067 -4.52683
468 1 8.78146 -13.6068 6.35432 -4.40489
469 1 8.55562 -11.4002 3.57848 -4.52068
470 1 10.4891 -15.8433 2.73091 -3.61642
471 1 10.1827 -12.4076 4.79245 -4.56864
472 1 12.8928 -14.2357 5.29158 -3.83214
473 1 12.8606 -12.3659 1.85968 -4.57085
474 1 11.4947 -13.8356 3.3595 -4.62329
475 1 11.5045 -11.0678 6.23597 -4.43941
476 1 12.9021 -12.3002 7.58484 -4.70654
477 1 14.2844 -11.172 3.27185 -4.51445
478 1 14.6021 -12.6787 5.08166 -3.66051
479 1 15.2514 -12.2893 7.49655 -4.37845
480 1 -17.8184 -7.93706 2.22993 -4.58204
481 1 -18.5585 -4.7764 8.10804 -4.27701
482 1 -16.7859 -8.70013 5.9464 -4.44234
483 1 -16.3075 -6.38977 3.40912 -4.66117
484 1 -15.4676 -10.0723 2.23708 -4.50876
485 1 -15.0371 -7.31105 5.10639 -4.59731
486 1 -12.6301 -10.0138 4.86801 -4.37239
487 1 -12.4856 -7.6542 2.17834 -4.52088
488 1 -14.0133 -8.75477 3.5303 -4.65844
489 1 -13.7928 -6.24603 6.97926 -4.40058
490 1 -11.7914 -8.79262 6.90823 -4.31824
491 1 -11.0978 -6.29926 3.64167 -4.50239
492 1 -9.8607 -10.0817 2.14957 -4.50928
493 1 -10.253 -7.5972 5.37437 -4.43421
494 1 -7.70398 -10.18 5.14029 -4.55154
495 1 -7.51252 -7.6582 1.92739 -4.45776
496 1 -8.81006 -8.69424 3.68491 -4.48509
497 1 -8.87903 -6.26112 6.73243 -4.59304
498 1 -6.38552 -8.86633 6.57795 -4.53209
499 1 -6.33332 -6.2881 3.50053 -4.53977
500 1 -4.992 -10.244 1.71747 -4.5304
501 1 -5.13408 -7.69263 4.8905 -4.52916
502 1 -2.52426 -10.1808 4.85231 -4.54031
503 1 -2.5102 -7.4073 1.85064 -4.54362
504 1 -3.83665 -8.91615 3.36409 -4.51589
505 1 -4.06085 -6.1161 6.37129 -4.39652
506 1 -1.35456 -8.85125 6.38968 -4.4748
507 1 -1.23051 -6.00678 3.41205 -4.49571
508 1 0.192704 -9.77866 1.94897 -4.48771
509 1 -0.061535 -7.37319 5.10973 -4.53287
510 1 2.6299 -9.69445 5.08939 -4.48087
511 1 2.61329 -7.27493 2.00053 -4.50829
512 1 1.31122 -8.51607 3.51564 -4.5136
513 1 1.17223 -6.11207 6.76991 -4.50905
514 1 3.85413 -8.7915 6.83266 -4.52367
515 1 3.89629 -6.13887 3.60689 -4.46433
516 1 5.0688 -9.86715 1.94823 -4.46377
517 1 5.06045 -7.26581 5.43979 -4.52729
518 1 7.51655 -10.1105 5.28406 -4.53994
519 1 7.3946 -7.47161 2.26708 -4.48795
520 1 6.16039 -8.74592 3.83067 -4.47292
521 1 6.54458 -6.03132 6.74309 -4.52905
522 1 8.78286 -8.70342 6.74333 -4.60099
523 1 8.86706 -6.27227 3.74047 -4.57083
524 1 9.80914 -9.68679 2.34303 -4.50108
525 1 10.1666 -7.50732 5.26651 -4.52888
526 1 13.0827 -9.87655 4.96414 -4.55026
527 1 12.6842 -6.998 2.36293 -4.48852
528 1 11.597 -8.59754 3.6631 -4.55587
529 1 11.2226 -6.19055 7.05091 -4.5778
530 1 14.2683 -8.62939 6.62607 -4.50031
531 1 13.8644 -5.89905 4.11865 -4.42873
532 1 15.4682 -9.71359 1.74349 -4.29025
533 1 15.4504 -6.99095 5.36903 -4.65004
534 1 16.5378 -5.80467 2.04175 -4.44133
535 1 16.1312 -7.98242 3.25952 -3.49242
536 1 16.6116 -5.89976 7.05433 -3.94442
537 1 18.0861 -4.29392 2.89998 -4.4003
538 1 -17.7869 -5.09517 4.59363 -4.54915
539 1 -17.1318 -3.0077 1.66614 -4.34043
540 1 -18.9455 -4.11806 2.72622 -4.51337
541 1 -19.0895 -2.11996 4.03188 -3.97441
542 1 -16.4335 -3.78787 5.92642 -4.54901
543 1 -16.9027 -1.24199 3.39767 -5.34368
544 1 -14.8158 -5.32438 1.9862 -4.4399
545 1 -15.1423 -2.35821 4.67043 -4.3301
546 1 -12.6013 -5.03493 5.07512 -4.43488
547 1 -12.7114 -2.35209 1.86088 -4.51515
548 1 -13.7776 -3.7942 3.40102 -4.50115
549 1 -13.8627 -1.43257 6.47568 -4.42656
550 1 -11.1869 -3.95615 6.69044 -4.48
551 1 -11.3453 -1.31115 3.48804 -4.50681
552 1 -10.114 -4.99402 1.95548 -4.46455
553 1 -10.1892 -2.4043 5.20446 -4.49675
554 1 -7.60636 -4.93154 5.1353 -4.48332
555 1 -7.43741 -2.78119 2.07086 -4.43726
556 1 -8.89486 -3.64225 3.6525 -4.5165
557 1 -8.70815 -1.27167 6.66231 -4.48648
558 1 -6.40041 -3.79445 6.71514 -4.49625
559 1 -6.38506 -1.23626 3.59711 -4.53377
560 1 -4.98025 -4.81004 2.00891 -4.48251
561 1 -5.07823 -2.40905 5.2529 -4.52271
562 1 -2.53534 -4.9251 5.05427 -4.55181
563 1 -2.36269 -2.16128 2.00264 -4.50685
564 1 -3.65973 -3.49561 3.54453 -4.53484
565 1 -3.79848 -1.08409 6.73301 -4.52446
566 1 -1.30415 -3.63471 6.64252 -4.506
567 1 -1.09366 -0.98755 3.64419 -4.48963
568 1 0.180171 -4.78988 1.8939 -4.51821
569 1 0.092101 -2.23414 5.2293 -4.53925
570 1 2.51986 -4.95159 5.21163 -4.51692
571 1 2.50665 -2.18765 2.06866 -4.50395
572 1 1.35915 -3.56916 3.60028 -4.49909
573 1 1.29756 -0.929474 6.74124 -4.52157
574 1 3.81557 -3.65854 6.88063 -4.52155
575 1 3.67499 -0.854258 3.63375 -4.46577
576 1 5.24443 -4.7559 2.06902 -4.49293
577 1 5.03827 -2.2447 5.23819 -4.43058
578 1 7.82868 -4.77071 5.17474 -4.50086
579 1 7.56946 -2.2108 2.30341 -4.53456
580 1 6.36496 -3.64467 3.70242 -4.51201
581 1 6.16277 -1.11525 6.9302 -4.53232
582 1 8.73736 -3.48918 6.98777 -4.48872
583 1 8.77109 -0.905734 3.79234 -4.48614
584 1 10.0609 -4.8379 2.32681 -4.47887
585 1 9.9599 -2.11712 5.46872 -4.53978
586 1 12.5012 -4.83341 5.71032 -4.60131
587 1 12.7518 -2.56019 2.68702 -4.27307
588 1 11.202 -3.64813 4.17047 -4.59738
589 1 11.2409 -1.08697 7.1238 -4.48843
590 1 13.6815 -3.31509 7.20468 -4.53419
591 1 13.752 -0.946666 4.0634 -4.60543
592 1 14.7975 -4.27192 2.6693 -4.93287
593 1 15.0152 -1.98975 5.74114 -4.53153
594 1 17.3116 -4.42294 5.24232 -3.50735
595 1 18.3493 -2.46394 1.52406 -4.32075
596 1 16.2623 -2.96562 3.89301 -4.40375
597 1 16.4383 -0.290878 6.59626 -4.35828
598 1 18.3822 -1.10108 7.69362 -4.41719
599 1 19.0422 -0.415294 2.72879 -4.3154
600 1 -18.9765 -0.264401 2.43491 -3.98484
601 1 -17.3287 0.383754 5.08892 -4.48593
602 1 -16.9467 2.46255 2.44211 -4.702
603 1 -18.755 1.68699 3.73686 -4.53557
604 1 -18.1511 3.48434 5.44301 -4.45488
605 1 -15.9646 1.47789 6.69578 -4.5666
606 1 -16.3359 4.0931 4.10417 -4.56693
607 1 -15.2806 -0.239103 1.88947 -4.32134
608 1 -14.9286 2.47521 4.94677 -4.45027
609 1 -12.6431 -0.063885 4.98756 -4.54957
610 1 -12.6917 2.55019 1.78455 -4.48931
611 1 -13.8621 1.12966 3.29568 -4.50709
612 1 -13.6098 3.61741 6.53721 -4.59604
613 1 -11.2036 1.06096 6.61757 -4.49759
614 1 -11.633 3.88836 3.48466 -4.37912
615 1 -10.0204 0.177866 2.01679 -4.54002
616 1 -10.1582 2.62522 5.04005 -4.4344
617 1 -7.57771 0.0571932 5.03901 -4.45221
618 1 -7.5754 2.5377 1.87039 -4.51464
619 1 -8.78186 1.45764 3.55132 -4.53134
620 1 -8.7646 3.60144 6.49023 -4.52698
621 1 -6.19418 1.10145 6.70948 -4.51265
622 1 -6.31789 3.71622 3.54629 -4.52121
623 1 -5.06987 0.0171027 2.03372 -4.50699
624 1 -5.1349 2.43346 5.09603 -4.49215
625 1 -2.52356 0.115338 5.13619 -4.49647
626 1 -2.31519 2.60785 2.08776 -4.43196
627 1 -3.73622 1.19736 3.51202 -4.51337
628 1 -4.05594 3.85348 6.7078 -4.50533
629 1 -1.51435 1.55381 6.77333 -4.48317
630 1 -1.32625 4.06755 3.80021 -4.48501
631 1 0.190772 0.31997 2.00829 -4.47859
632 1 -0.0453673 2.76037 5.18363 -4.52504
633 1 2.55741 0.57981 5.29317 -4.47191
634 1 2.69476 2.8992 1.86413 -4.4629
635 1 1.40627 1.67765 3.60103 -4.43448
636 1 1.30114 3.91294 6.85126 -4.5267
637 1 3.863 1.66497 6.92695 -4.49728
638 1 3.67488 4.04886 3.65648 -4.41968
639 1 5.00417 0.351884 2.11671 -4.51403
640 1 5.07222 3.06412 5.29033 -4.45913
641 1 7.47312 0.312603 5.47483 -4.50038
642 1 7.74511 2.71002 2.31212 -4.54984
643 1 6.25415 1.59846 3.76809 -4.52298
644 1 6.38736 4.04642 7.00874 -4.54715
645 1 8.79631 1.51135 6.91614 -4.51712
646 1 8.6008 4.43783 3.73787 -4.44525
647 1 10.0657 0.148489 2.15733 -4.50859
648 1 9.72474 2.9496 5.24701 -4.52734
649 1 12.3976 0.234641 5.5998 -4.50902
650 1 12.4157 2.62561 2.401 -4.48245
651 1 11.1049 1.42408 3.96717 -4.50208
652 1 11.2933 4.0747 6.77255 -4.50022
653 1 13.7793 1.46461 7.16106 -4.53971
654 1 13.9907 3.97338 3.66858 -4.41005
655 1 15.0537 -0.0514963 2.30443 -4.48046
656 1 14.9802 2.72924 5.43371 -4.39456
657 1 17.6678 -0.00300871 4.63506 -4.54371
658 1 17.1823 2.2799 1.74163 -4.52767
659 1 16.1173 1.50307 3.66322 -4.58551
660 1 16.5514 3.87249 6.85762 -4.39098
661 1 19.0387 1.79283 5.3525 -4.33265
662 1 18.6913 3.74293 2.80352 -4.53625
663 1 20.0629 1.78291 3.09369 -4.21147
664 1 -18.5525 5.80371 5.49322 -4.36822
665 1 -16.8364 7.57941 2.26326 -4.44403
666 1 -17.8618 5.5342 3.02049 -4.36942
667 1 -16.4117 6.45885 6.36144 -4.4777
668 1 -15.7947 9.08218 3.87013 -4.1834
669 1 -15.6972 5.18934 0.594494 -4.55399
670 1 -14.65 7.10736 4.76447 -4.7224
671 1 -12.9958 5.3376 4.95476 -4.30278
672 1 -13.0024 7.43922 1.54605 -4.56142
673 1 -14.8653 6.32467 2.43704 -4.41258
674 1 -13.7698 8.59293 6.49736 -4.39715
675 1 -11.3274 6.06135 6.38585 -4.60453
676 1 -11.58 8.51738 3.21329 -4.44965
677 1 -10.3232 5.08113 1.78066 -4.48174
678 1 -10.2283 7.58307 4.87372 -4.52104
679 1 -7.48132 5.07907 5.05579 -4.5133
680 1 -7.48704 7.45252 1.97945 -4.52699
681 1 -8.88328 6.07329 3.48097 -4.51074
682 1 -8.75384 8.70964 6.37736 -4.56076
683 1 -6.19034 6.34938 6.62017 -4.50398
684 1 -6.25446 8.89612 3.34742 -4.5709
685 1 -4.98814 4.79207 1.91381 -4.54244
686 1 -5.07391 7.6204 5.01814 -4.47441
687 1 -2.69312 5.25616 5.3141 -4.50465
688 1 -2.44211 7.42861 1.94415 -4.49697
689 1 -3.95318 6.206 3.45627 -4.4779
690 1 -3.79481 8.99501 6.63383 -4.48436
691 1 -1.41737 6.39784 6.845 -4.47117
692 1 -1.39503 8.87771 3.67168 -4.51594
693 1 0.109575 5.29385 2.17249 -4.42389
694 1 -0.155787 7.46035 5.15662 -4.52006
695 1 2.51681 5.33088 5.34722 -4.49585
696 1 2.51625 7.72188 1.90395 -4.48046
697 1 1.35647 6.56749 3.64878 -4.44866
698 1 1.01251 8.89487 6.71192 -4.55091
699 1 3.6924 6.77001 6.76908 -4.56171
700 1 3.71135 9.14179 3.46409 -4.39935
701 1 4.9919 5.30231 2.13282 -4.52982
702 1 5.01672 8.02303 5.25029 -4.46551
703 1 7.38553 5.66322 5.58274 -4.35262
704 1 7.41049 7.8521 1.9523 -4.28112
705 1 6.11994 6.6632 3.63808 -4.378
706 1 6.39155 9.21626 6.86782 -4.40128
707 1 9.00866 6.79213 7.08883 -4.46182
708 1 8.55944 8.99437 3.96799 -4.50257
709 1 10.0764 5.48788 2.16989 -4.44821
710 1 10.2232 8.19741 5.5784 -4.29691
711 1 12.5487 5.40616 5.18614 -4.50932
712 1 12.5483 7.68831 2.40716 -4.44085
713 1 11.07 6.7178 3.98485 -4.54493
714 1 11.9995 9.71796 8.01811 -4.4736
715 1 13.6883 6.64889 6.88354 -4.31364
716 1 13.4531 8.7206 4.27765 -4.24621
717 1 14.8097 5.35263 1.78988 -4.36856
718 1 15.0591 8.36606 6.00214 -4.74566
719 1 18.2689 4.17317 5.04656 -4.20466
720 1 18.1472 7.12034 2.21303 -4.28173
721 1 16.0963 6.69859 3.26845 -4.43897
722 1 16.6813 9.52852 7.46721 -4.10699
723 1 18.1586 6.5172 4.58729 -4.14851
724 1 -15.4694 11.0235 5.37523 -3.49284
725 1 -15.2103 10.304 1.79286 -4.4185
726 1 -14.7801 12.7273 3.73298 -4.59144
727 1 -12.6122 9.93825 4.79315 -4.48904
728 1 -11.7604 12.4816 1.94699 -4.1655
729 1 -13.3748 11.1564 2.95863 -4.66982
730 1 -13.1569 13.8798 5.06415 -3.99804
731 1 -11.3201 11.359 6.06246 -4.61932
732 1 -10.9502 14.0461 3.64913 -5.37959
733 1 -10.038 9.69423 1.80608 -4.50037
734 1 -9.61447 12.5361 4.90776 -4.36891
735 1 -7.4021 10.2022 4.96856 -4.5113
736 1 -7.73346 12.5741 1.67339 -4.54896
737 1 -8.77361 11.0793 3.20419 -4.49456
738 1 -8.18224 13.9991 6.15801 -4.5933
739 1 -5.99937 11.5846 6.51146 -4.45396
740 1 -6.32573 13.8899 3.00277 -4.61314
741 1 -4.98092 10.3019 1.92832 -4.49012
742 1 -5.09393 12.9977 4.77849 -4.432
743 1 -2.52466 10.4003 5.18533 -4.50217