ITEM: TIMESTEP
226000
ITEM: NUMBER OF ATOMS
4050
ITEM: BOX BOUNDS ss ss pp
-2.0527254254761850e+01 2.0727898214126029e+01
-2.0499966595923269e+01 2.0416387966642557e+01
-3.0685150000000001e+00 5.7378515000000000e+01
ITEM: ATOMS id type x y z c_peratom
1 1 -12.2346 -15.329 -0.762961 -3.82127
2 1 -7.54719 -17.6398 -2.15937 -4.5321
3 1 -8.97599 -16.7647 0.670411 -4.56709
4 1 -7.65445 -18.5843 -0.0478925 -4.34728
5 1 -5.88378 -16.3374 -1.29932 -4.69483
6 1 -5.32348 -18.1036 0.0339216 -4.59813
7 1 -2.54827 -18.1623 -3.15627 -4.66089
8 1 -4.50844 -18.9267 -2.05877 -3.84831
9 1 -3.74184 -16.7927 1.32977 -4.42059
10 1 -0.653879 -19.0387 1.79626 -4.26703
11 1 -1.35473 -16.5835 -1.95885 -4.52948
12 1 0.501495 -19.6601 -1.38451 -4.57866
13 1 -0.351659 -17.7998 -0.185997 -4.56519
14 1 3.20929 -17.6733 57.1253 -4.56104
15 1 2.74731 -19.0953 -1.62788 -3.80154
16 1 1.27332 -16.371 0.932081 -4.56741
17 1 3.3754 -19.2308 0.655678 -4.4382
18 1 3.94056 -16.2643 -1.45136 -4.64215
19 1 5.17755 -17.6909 -0.147967 -4.42541
20 1 6.77879 -17.9509 -1.97846 -4.24537
21 1 9.653 -17.4601 0.811716 -3.68243
22 1 6.34678 -16.4392 1.50697 -4.5887
23 1 8.83278 -16.6438 -1.15955 -4.51879
24 1 11.6018 -16.2563 1.34619 -3.73139
25 1 -15.0702 -12.7983 -0.969469 -3.84478
26 1 -15.4544 -13.793 1.05346 -4.43711
27 1 -14.2049 -15.6747 0.475908 -4.40959
28 1 -12.6242 -13.3346 57.2907 -4.51536
29 1 -14.1329 -14.7141 -1.82076 -4.54649
30 1 -14.1396 -11.874 1.05576 -4.26331
31 1 -11.545 -14.1134 1.23305 -4.91173
32 1 -11.4138 -11.8663 -1.67991 -4.55007
33 1 -10.3342 -15.7822 57.4646 -3.93037
34 1 -9.97544 -12.9766 -0.255111 -4.41998
35 1 -7.4296 -15.1346 -0.0121829 -4.62327
36 1 -7.61303 -12.6306 -2.8754 -4.54126
37 1 -8.77093 -14.2896 -1.7996 -4.58237
38 1 -8.92132 -11.4613 1.29476 -4.52895
39 1 -6.15025 -13.9108 1.62061 -4.53779
40 1 -6.33555 -11.4742 -1.33705 -4.53853
41 1 -4.87216 -15.2167 57.3843 -4.50149
42 1 -4.9081 -12.6661 0.0772966 -4.53473
43 1 -2.59123 -15.4496 -0.276919 -4.48724
44 1 -2.35164 -12.7853 57.2898 -4.5025
45 1 -3.65987 -13.8033 -1.60852 -4.5495
46 1 -3.64019 -11.3292 1.5902 -4.58172
47 1 -1.32835 -14.0595 1.37744 -4.52385
48 1 -1.28761 -11.283 -1.49654 -4.54155
49 1 0.286005 -15.4535 57.1636 -4.53645
50 1 -0.0344187 -12.7188 -0.0884089 -4.54381
51 1 2.59251 -14.8191 -0.232532 -4.52229
52 1 2.72113 -12.7217 57.0661 -4.57885
53 1 1.24724 -13.7271 -1.82613 -4.48817
54 1 1.27806 -11.3265 1.3362 -4.566
55 1 3.8222 -13.9248 1.59079 -4.51407
56 1 4.05115 -11.5212 -1.82534 -4.48406
57 1 5.1883 -15.0004 -2.96806 -4.6303
58 1 4.97714 -12.6523 0.0402438 -4.47388
59 1 7.60599 -15.1484 0.10072 -4.64828
60 1 7.91513 -12.6561 -3.09251 -4.46398
61 1 6.36835 -13.8046 -1.46171 -4.4988
62 1 6.42547 -11.5011 1.50508 -4.57681
63 1 9.01566 -13.9798 1.69777 -4.58972
64 1 8.97497 -11.1653 -1.47786 -4.47988
65 1 10.2059 -15.1993 -2.48035 -4.52011
66 1 9.98061 -12.268 0.449118 -4.50989
67 1 12.6946 -14.9827 -0.412751 -4.54226
68 1 12.5173 -12.2171 -2.58075 -4.35786
69 1 11.1941 -13.4573 -1.21116 -4.6859
70 1 11.6965 -11.2255 1.78244 -4.54973
71 1 14.0058 -13.2248 0.498376 -4.06459
72 1 14.0399 -11.0683 -0.887978 -5.39279
73 1 15.8831 -12.6473 -0.750796 -4.04851
74 1 16.2106 -10.4822 0.13927 -4.05502
75 1 -17.5768 -7.60595 56.7147 -4.23564
76 1 -18.7213 -6.01636 2.73173 -3.85632
77 1 -16.2835 -8.77566 2.0518 -3.59705
78 1 -16.7414 -6.60712 -1.56649 -4.37303
79 1 -15.1278 -10.7541 -3.10813 -3.8925
80 1 -15.3397 -7.76963 0.0829691 -4.45282
81 1 -12.7962 -10.495 -0.32106 -4.51982
82 1 -12.786 -7.86514 57.2237 -4.49684
83 1 -14.1569 -9.09599 -1.62644 -4.58767
84 1 -13.8643 -6.65112 1.56621 -4.4539
85 1 -11.7153 -9.2964 1.42993 -4.43686
86 1 -11.8716 -6.39785 -1.44332 -4.49468
87 1 -10.1939 -10.2558 57.2806 -4.56184
88 1 -10.4948 -7.77793 -0.124556 -4.53209
89 1 -7.71516 -9.98601 -0.073474 -4.58698
90 1 -7.52244 -7.52392 -3.28183 -4.47153
91 1 -9.01823 -8.77671 -1.68238 -4.51264
92 1 -9.29709 -6.60262 1.58897 -4.52216
93 1 -6.45891 -8.81588 1.49653 -4.54295
94 1 -6.53108 -6.28091 -1.55474 -4.49344
95 1 -5.1943 -10.3504 57.4422 -4.48891
96 1 -5.18789 -7.44343 0.0457468 -4.55264
97 1 -2.67854 -9.96084 -0.116191 -4.5548
98 1 -2.51378 -7.68734 57.4684 -4.55137
99 1 -4.02148 -8.76358 -1.60437 -4.54723
100 1 -3.88996 -6.08402 1.52943 -4.52172
101 1 -1.37007 -8.72735 1.38992 -4.58874
102 1 -1.2953 -6.28145 -1.55516 -4.58291
103 1 0.0104783 -10.2411 57.2958 -4.54529
104 1 0.00225728 -7.53123 -0.119944 -4.57086
105 1 2.61153 -10.1767 -0.303984 -4.54047
106 1 2.69291 -7.69509 57.265 -4.55062
107 1 1.19819 -8.90931 -1.62039 -4.58033
108 1 1.45403 -6.3849 1.43667 -4.56413
109 1 3.96504 -8.88993 1.17917 -4.5275
110 1 3.97281 -6.43812 -1.62775 -4.57997
111 1 5.32321 -10.0566 57.1845 -4.56712
112 1 5.38339 -7.52039 -0.100933 -4.58106
113 1 7.68483 -10.0055 0.151978 -4.53219
114 1 7.96538 -7.47461 57.2746 -4.53048
115 1 6.6319 -8.8574 -1.70517 -4.51047
116 1 6.66995 -6.09228 1.40903 -4.50215
117 1 9.30418 -8.85237 1.48272 -4.5437
118 1 9.14718 -6.23432 -1.49174 -4.45735
119 1 10.4311 -9.85229 57.5502 -4.52061
120 1 10.2533 -7.19564 0.231924 -4.43301
121 1 12.502 -9.73802 0.323618 -4.31133
122 1 12.9229 -7.52709 -3.10149 -4.48162
123 1 11.5777 -8.43722 -1.32431 -4.43113
124 1 11.6906 -6.1075 1.7522 -4.59279
125 1 13.9672 -8.48041 1.59023 -4.65655
126 1 13.9776 -6.09846 -1.59377 -4.58415
127 1 15.0865 -10.0541 -2.83568 -4.28089
128 1 15.2667 -7.38966 -0.106215 -4.61664
129 1 16.7967 -6.89421 -3.03032 -4.46182
130 1 16.4245 -8.79098 -1.49641 -4.37501
131 1 16.5998 -5.82719 0.941355 -4.0725
132 1 18.5543 -5.48866 -2.82077 -3.92421
133 1 -18.0798 -5.23168 -0.0484175 -3.7216
134 1 -18.0478 -2.45086 -2.67008 -5.00373
135 1 -19.2682 -3.18809 -0.707896 -4.25867
136 1 -18.1308 -2.18795 1.02925 -4.60345
137 1 -16.7395 -5.1049 1.87477 -4.61919
138 1 -16.5653 -0.825668 -1.8052 -4.58469
139 1 -15.3173 -5.40319 -2.94492 -4.57173
140 1 -15.9051 -2.2731 -0.111679 -4.44499
141 1 -13.2535 -5.05265 0.0326106 -4.44561
142 1 -13.0786 -2.59775 57.4348 -4.55215
143 1 -14.4688 -3.79808 -1.4535 -4.40917
144 1 -14.5451 -1.11559 1.47812 -4.50709
145 1 -11.8055 -3.99709 1.59779 -4.53099
146 1 -11.5609 -1.35577 -1.67546 -4.52359
147 1 -10.4135 -5.4407 57.3307 -4.48173
148 1 -10.6367 -2.90025 -0.0236145 -4.49591
149 1 -7.83643 -5.22064 0.169267 -4.50683
150 1 -7.7477 -2.65785 -2.90468 -4.54213
151 1 -9.06873 -4.07513 -1.48358 -4.53727
152 1 -9.21555 -1.44861 1.28293 -4.55674
153 1 -6.69366 -3.83131 1.75589 -4.51536
154 1 -6.41241 -1.40014 -1.38985 -4.6131
155 1 -5.08379 -5.03899 -3.00588 -4.59421
156 1 -5.23928 -2.87838 0.0671861 -4.51022
157 1 -2.49355 -4.92643 -0.0550389 -4.53694
158 1 -2.3936 -2.52301 -3.04113 -4.54086
159 1 -3.76613 -3.70723 -1.52273 -4.50905
160 1 -3.98584 -1.40873 1.51369 -4.56144
161 1 -1.15905 -3.74531 1.57624 -4.57328
162 1 -1.13627 -1.16426 -1.60749 -4.52133
163 1 0.271854 -5.10037 -2.9781 -4.50158
164 1 -0.00076665 -2.34471 0.0669153 -4.52612
165 1 2.71896 -5.15751 -0.0905715 -4.55822
166 1 2.50585 -2.56385 -2.86051 -4.53418
167 1 1.20684 -3.77098 -1.32101 -4.55353
168 1 1.45106 -1.30868 1.67277 -4.5259
169 1 3.7935 -3.86284 1.63482 -4.52307
170 1 3.97218 -1.38493 -1.44619 -4.57699
171 1 5.21858 -4.93933 57.4484 -4.59323
172 1 5.18924 -2.48939 0.134666 -4.52097
173 1 7.93661 -4.80022 -0.140582 -4.53203
174 1 7.69232 -2.36163 57.4678 -4.60215
175 1 6.46222 -3.63767 -1.41616 -4.53734
176 1 6.41188 -1.06468 1.60951 -4.56908
177 1 8.95726 -3.56935 1.57021 -4.51535
178 1 9.04697 -0.996847 -1.53323 -4.5252
179 1 10.4276 -4.82593 57.494 -4.52935
180 1 10.1906 -2.28104 0.0975897 -4.54023
181 1 13.1832 -4.97015 0.33239 -4.4653
182 1 12.6321 -2.45381 -2.95058 -4.4748
183 1 11.7625 -3.72024 -1.21518 -4.44006
184 1 11.5298 -1.21389 1.67496 -4.5952
185 1 14.5068 -3.51966 1.7103 -4.28138
186 1 13.9388 -1.32701 -1.42914 -4.51326
187 1 15.4739 -4.9301 -3.06079 -4.49949
188 1 15.5392 -2.19771 0.14067 -4.42472
189 1 18.3165 -4.68273 -0.590678 -4.53047
190 1 17.8062 -2.29565 57.5054 -4.66096
191 1 16.5463 -3.58908 -1.43112 -4.67575
192 1 16.4945 -0.814509 1.73644 -4.61073
193 1 18.7887 -2.57575 0.393796 -3.73239
194 1 18.8367 -0.865951 -1.35399 -3.95781
195 1 -19.9291 -1.27474 -2.01206 -4.34155
196 1 -18.8913 -0.0297183 1.36723 -4.3395
197 1 -18.0276 2.33181 -2.62292 -4.29897
198 1 -18.5 0.396551 -1.15084 -4.39974
199 1 -18.8897 5.06927 2.46858 -4.10923
200 1 -17.0571 1.4077 1.84676 -4.55877
201 1 -16.8208 3.51053 -1.00217 -4.3268
202 1 -15.3385 0.244378 57.0118 -4.52032
203 1 -15.3108 2.10278 0.313485 -4.41709
204 1 -12.9928 -0.10434 -0.11523 -4.51553
205 1 -13.1209 2.74999 -3.14279 -4.53634
206 1 -14.1556 1.23319 -1.67567 -4.41014
207 1 -14.2416 3.88009 1.56099 -4.5528
208 1 -11.5883 1.25582 1.36667 -4.55752
209 1 -11.6374 3.77425 -1.53302 -4.46961
210 1 -10.5234 0.0864648 -3.13346 -4.53287
211 1 -10.3303 2.55719 -0.173201 -4.54129
212 1 -7.85204 -0.028149 -0.0805778 -4.5579
213 1 -7.77138 2.46386 -3.07847 -4.5009
214 1 -9.12428 1.18732 -1.68163 -4.57749
215 1 -8.91348 3.72032 1.31395 -4.51606
216 1 -6.50662 1.09853 1.45998 -4.55426
217 1 -6.59962 3.6342 -1.35253 -4.50797
218 1 -5.20122 -0.138326 -3.04854 -4.53943
219 1 -5.1701 2.5405 0.0423833 -4.55977
220 1 -2.63942 -0.188963 -0.0406069 -4.56452
221 1 -2.6515 2.4654 57.5509 -4.5307
222 1 -3.95988 1.16949 -1.49849 -4.61063
223 1 -3.74984 3.83542 1.38582 -4.54644
224 1 -1.34172 1.28829 1.39388 -4.54451
225 1 -1.26387 3.79427 -1.50975 -4.62083
226 1 0.0978391 0.117711 -3.06421 -4.53863
227 1 0.135533 2.49814 -0.0663314 -4.58651
228 1 2.64026 -0.104316 0.040236 -4.53964
229 1 2.4855 2.8775 57.5865 -4.51973
230 1 1.41174 1.26668 -1.53654 -4.56219
231 1 1.40522 4.04027 1.33761 -4.55088
232 1 3.82109 1.31292 1.55344 -4.5543
233 1 3.88637 4.06817 -1.40803 -4.5513
234 1 5.25848 0.0253448 -2.81645 -4.55255
235 1 5.08168 2.68912 0.165899 -4.57494
236 1 7.75778 0.171578 0.095402 -4.55325
237 1 7.38139 2.70739 -3.25644 -4.53094
238 1 6.45903 1.53115 -1.37722 -4.54519
239 1 6.40195 4.22181 1.48837 -4.57471
240 1 8.8127 1.58731 1.56298 -4.56833
241 1 8.71837 3.96404 -1.76087 -4.48756
242 1 10.321 0.248228 -3.1514 -4.51873
243 1 9.98028 2.73045 -0.146348 -4.53658
244 1 12.8518 0.0817803 0.137229 -4.54643
245 1 12.3015 2.88222 -2.98617 -4.51757
246 1 11.3964 1.28882 -1.35335 -4.47431
247 1 11.2864 3.92894 1.47314 -4.55596
248 1 13.9601 1.38534 1.72746 -4.51459
249 1 13.6902 4.15354 -1.58668 -4.46058
250 1 15.0477 0.342254 -2.83442 -4.52971
251 1 15.0652 3.05143 0.173322 -4.31881
252 1 17.9395 0.418844 0.335261 -4.53994
253 1 17.087 2.71082 -2.48242 -4.42908
254 1 16.133 1.29874 -0.927057 -4.47684
255 1 16.5986 4.51622 1.36119 -4.82308
256 1 19.5171 1.31585 1.90926 -4.29508
257 1 19.0982 3.84945 -2.74224 -4.17401
258 1 19.0928 1.46623 57.2508 -3.79074
259 1 -18.3042 5.07955 0.098721 -4.00165
260 1 -17.8874 8.19833 56.6752 -4.37928
261 1 -18.0673 6.38175 -2.04862 -4.11006
262 1 -17.0725 6.4533 1.71505 -4.98329
263 1 -16.5861 9.0875 -2.04085 -3.60523
264 1 -16.0474 5.1104 -2.80783 -5.36057
265 1 -15.9577 7.91357 -0.0626728 -4.35293
266 1 -13.1286 5.04753 -0.113749 -4.52714
267 1 -12.9497 7.71839 -2.92312 -4.50637
268 1 -14.5972 6.50767 -1.42219 -4.30568
269 1 -14.5535 9.02804 1.51477 -4.49125
270 1 -11.8346 6.56598 1.39399 -4.5454
271 1 -11.6653 9.10765 -1.5331 -4.55657
272 1 -10.3376 5.13306 -3.1344 -4.54964
273 1 -10.4712 7.65788 -0.141074 -4.60487
274 1 -7.71707 5.22379 -0.0264106 -4.58936
275 1 -7.8737 7.66535 57.2641 -4.58893
276 1 -9.11088 6.37967 -1.56134 -4.54914
277 1 -8.88608 8.88439 1.11937 -4.55691
278 1 -6.30149 6.35397 1.45507 -4.55903
279 1 -6.56539 8.94398 -1.73466 -4.59773
280 1 -5.40183 4.81881 57.3017 -4.53728
281 1 -5.26584 7.64137 -0.276536 -4.52227
282 1 -2.59033 5.26065 -0.131016 -4.54399
283 1 -2.65485 7.48389 -3.23657 -4.50891
284 1 -3.94818 6.28268 -1.73252 -4.52653
285 1 -4.02748 8.86761 1.38063 -4.5455
286 1 -1.28087 6.35089 1.45122 -4.45908
287 1 -1.50021 8.93325 -1.70584 -4.53213
288 1 0.0177306 5.08993 57.3829 -4.54299
289 1 -0.155137 7.65977 -0.153753 -4.54886
290 1 2.72742 5.60167 -0.0972358 -4.54027
291 1 2.41542 8.01234 -3.16364 -4.55402
292 1 1.21945 6.60145 -1.66883 -4.55714
293 1 1.11753 9.0319 1.41779 -4.49535
294 1 3.9583 6.75162 1.50054 -4.55575
295 1 3.74607 9.17608 -1.65868 -4.46971
296 1 5.04999 5.30099 -3.08386 -4.51124
297 1 5.10584 8.24227 0.0479228 -4.53832
298 1 7.63118 5.44018 -0.125366 -4.55798
299 1 7.13548 7.74667 57.2014 -4.47235
300 1 6.06179 6.65271 -1.45762 -4.49243
301 1 6.45495 9.7292 1.3588 -4.4708
302 1 8.9796 6.94662 1.2101 -4.4341
303 1 8.71538 8.92847 -1.80341 -4.61872
304 1 9.78848 5.25699 57.0306 -4.50308
305 1 10.4949 7.962 -0.550989 -4.31866
306 1 12.5176 5.34331 -0.00925346 -4.4989
307 1 12.461 7.43425 57.0953 -4.57062
308 1 11.2174 6.18323 -1.81244 -4.52401
309 1 12.0355 9.83838 2.15422 -4.45246
310 1 13.9048 6.68856 1.35239 -4.47334
311 1 13.5732 8.6203 -1.67859 -4.27229
312 1 15.2823 5.39409 -2.96892 -4.44098
313 1 15.8032 8.01682 0.473731 -4.45548
314 1 18.3585 5.15713 -0.361717 -3.90368
315 1 17.1828 6.7105 56.9716 -4.58167
316 1 17.2364 7.03493 -1.214 -3.70463
317 1 16.7346 8.58971 2.66291 -4.29893
318 1 18.7114 5.69664 2.0201 -4.08813
319 1 -16.0803 12.9684 2.57382 -4.23039
320 1 -15.2062 10.6974 -2.87536 -4.66978
321 1 -15.3137 13.3222 0.358331 -4.12098
322 1 -13.1193 10.2017 0.155641 -4.56155
323 1 -12.7573 13.0103 -2.79323 -4.92145
324 1 -14.1424 11.8863 -1.07124 -4.33509
325 1 -13.797 13.6652 2.08183 -4.77226
326 1 -11.4867 11.3047 1.57548 -4.49196
327 1 -12.0533 14.4328 -1.04545 -4.24991
328 1 -10.3034 10.3656 -3.01844 -4.56874
329 1 -10.6602 12.6167 -0.317905 -4.45439
330 1 -7.73945 10.4684 -0.259506 -4.5658
331 1 -7.58936 12.8643 56.9276 -4.4658
332 1 -8.99494 11.9059 -1.77341 -4.49597
333 1 -9.35021 14.0326 1.12322 -4.52354
334 1 -6.32161 11.5892 1.29389 -4.59669
335 1 -6.50032 14.0487 -1.90152 -4.48112
336 1 -5.16271 10.1542 -3.21588 -4.55169
337 1 -5.20068 12.8739 -0.390705 -4.5212
338 1 -2.50005 10.1483 0.0347249 -4.50859
339 1 -2.67581 12.8303 57.1877 -4.57758
340 1 -3.78251 11.3694 -1.63219 -4.55081
341 1 -4.0592 14.1717 1.24318 -4.38947
342 1 -1.37993 11.6101 1.56776 -4.57085
343 1 -1.37528 14.1563 -1.7451 -4.50797
344 1 -0.0651427 10.3266 57.4414 -4.50128
345 1 -0.110429 12.9306 -0.0486179 -4.54882
346 1 2.45284 10.4766 -0.00329855 -4.58243
347 1 2.51213 12.9947 57.2979 -4.4926
348 1 1.20661 11.714 -1.53544 -4.53439
349 1 1.08975 14.282 1.46949 -4.58666
350 1 3.75923 11.8727 1.45864 -4.54398
351 1 3.75466 14.3823 -1.6953 -4.48495
352 1 4.86835 10.4725 57.1948 -4.49765
353 1 4.98258 13.2325 0.0369137 -4.33068
354 1 7.76329 10.6736 -0.442165 -4.37058
355 1 7.24299 12.8713 57.2507 -4.34679
356 1 5.99347 11.7546 -1.62318 -4.53238
357 1 6.20773 14.5643 1.85987 -4.5126
358 1 9.19059 12.5072 2.09158 -4.48707
359 1 8.45095 14.2972 -1.78388 -4.76642
360 1 9.75944 10.0575 56.8936 -4.38198
361 1 9.40901 12.4639 -0.318856 -4.71262
362 1 11.9338 9.76585 -0.21943 -4.8751
363 1 12.265 12.2335 56.5733 -4.21815
364 1 10.953 11.3253 -1.85323 -4.67556
365 1 10.8186 14.1546 2.33024 -4.49366
366 1 13.9125 11.1724 2.37169 -4.44281
367 1 12.7112 12.8496 -1.5493 -4.28849
368 1 14.6205 9.84897 57.0936 -4.09755
369 1 13.7787 11.4033 -0.013232 -4.39668
370 1 15.3311 9.9348 -0.948122 -4.37473
371 1 -13.7893 15.2135 0.240929 -4.15528
372 1 -12.7623 15.9302 2.41074 -4.14703
373 1 -9.65686 15.3233 57.2293 -4.39393
374 1 -8.14604 15.1952 -0.504897 -4.54631
375 1 -8.53659 17.3875 56.8037 -4.46129
376 1 -9.41401 16.856 -1.4946 -4.44645
377 1 -6.74315 16.1674 1.13015 -4.7449
378 1 -7.39409 18.0206 -1.69325 -3.62272
379 1 -5.42673 15.5234 57.0992 -4.55882
380 1 -5.55914 17.6481 -0.282594 -4.68897
381 1 -2.74799 15.2254 -0.324242 -4.50153
382 1 -2.73983 18.3013 57.4067 -4.56986
383 1 -4.00458 16.6453 -1.79412 -4.52142
384 1 -5.2431 18.9006 1.70242 -4.03226
385 1 -1.80967 16.6819 1.23102 -4.52142
386 1 -0.903984 19.3871 -1.95518 -3.652
387 1 0.0541949 15.4477 -3.10706 -4.58555
388 1 -0.398981 18.1056 -0.110841 -4.62296
389 1 2.38507 15.5177 -0.0641545 -4.51202
390 1 2.46206 18.3562 -2.52381 -4.41654
391 1 1.02466 16.8886 -1.48607 -4.64895
392 1 0.934356 19.078 1.53823 -4.36787
393 1 3.31523 16.7682 1.82102 -4.55766
394 1 2.60854 19.5144 -0.283108 -4.16117
395 1 4.85653 15.7441 57.1471 -4.45653
396 1 4.55139 18.1321 0.420983 -4.49199
397 1 7.39019 16.0992 -0.680319 -4.41429
398 1 8.87044 17.5095 -1.89665 -4.39004
399 1 5.62219 17.2708 -1.69739 -4.44123
400 1 5.55537 19.3798 2.12445 -3.64217
401 1 7.9281 16.1149 1.59704 -4.22092
402 1 9.72065 15.0322 56.6074 -4.32456
403 1 11.1107 14.052 -0.172418 -4.24975
404 1 10.5474 15.7701 -1.82272 -4.26513
405 1 1.21293 20.2661 -2.24428 -4.3504
406 1 -12.5748 -16.0198 2.34081 -4.22277
407 1 -7.7337 -17.9672 2.27541 -3.5026
408 1 -9.01767 -16.4182 7.2067 -3.64115
409 1 -6.32843 -18.6491 7.969 -4.08668
410 1 -6.61336 -16.9077 4.02167 -4.48951
411 1 -5.44519 -17.8194 5.93584 -4.49452
412 1 -2.67564 -18.2145 3.03122 -4.43375
413 1 -3.57473 -18.9846 5.13638 -3.81474
414 1 -3.68665 -16.6847 7.10112 -4.51256
415 1 -1.70119 -19.0911 6.61902 -3.94707
416 1 -1.47628 -16.7976 4.33176 -4.60482
417 1 1.16957 -20.4049 1.00483 -4.02996
418 1 0.0715424 -18.1875 5.32653 -4.39486
419 1 2.44158 -17.8174 2.36369 -4.56606
420 1 1.05288 -19.3669 3.27195 -4.28589
421 1 1.3129 -16.6422 6.88893 -4.37956
422 1 4.60365 -18.9581 7.96056 -4.39491
423 1 3.69195 -16.8048 4.31251 -4.42301
424 1 5.29823 -17.8317 5.8953 -4.48373
425 1 8.06097 -17.7064 2.62112 -4.47713
426 1 7.24929 -18.3185 4.68485 -3.44366
427 1 6.41897 -16.2559 7.30619 -4.504
428 1 9.1539 -16.835 4.57294 -4.41638
429 1 12.944 -14.9043 8.5042 -4.36701
430 1 -17.5097 -9.87615 5.03516 -4.28024
431 1 -16.0823 -11.9163 5.26908 -4.06482
432 1 -13.2903 -14.9279 4.33296 -4.20801
433 1 -12.966 -12.9518 2.89197 -4.81785
434 1 -15.0698 -13.7584 3.50802 -4.0053
435 1 -14.3227 -11.5197 6.80222 -4.51472
436 1 -12.1285 -14.1661 6.45717 -4.41277
437 1 -11.7383 -11.6274 4.46311 -4.44288
438 1 -10.1927 -15.7425 2.48706 -4.21216
439 1 -10.3122 -12.8997 5.7986 -4.5948
440 1 -7.84937 -15.4211 5.39606 -4.61559
441 1 -7.80647 -12.7391 2.9302 -4.60385
442 1 -9.30745 -14.1351 4.03432 -4.50059
443 1 -9.32318 -11.5612 7.53604 -4.51974
444 1 -6.56332 -14.3921 7.1275 -4.51908
445 1 -6.54021 -11.5245 4.46499 -4.54386
446 1 -5.1892 -15.6134 2.80307 -4.55048
447 1 -5.25153 -12.8046 6.07784 -4.54412
448 1 -2.56236 -15.1781 5.74328 -4.53617
449 1 -2.66348 -13.0628 3.00368 -4.52929
450 1 -4.27862 -14.1258 4.43036 -4.52558
451 1 -3.99751 -11.5702 7.62712 -4.48854
452 1 -1.45792 -13.9683 7.41633 -4.56794
453 1 -1.44474 -11.553 4.44001 -4.54058
454 1 -0.0124868 -15.412 2.81083 -4.52096
455 1 -0.0494341 -12.6649 5.92111 -4.5697
456 1 2.49409 -15.2072 5.60334 -4.57023
457 1 2.48783 -12.5346 3.02182 -4.59445
458 1 1.12826 -13.9392 4.26658 -4.57198
459 1 1.31541 -11.5028 7.50738 -4.56544
460 1 3.65166 -14.0315 7.2094 -4.44293
461 1 3.93429 -11.393 4.3718 -4.56433
462 1 5.05415 -15.3552 3.03379 -4.55028
463 1 5.19624 -12.7756 5.93961 -4.55236
464 1 8.1455 -15.1641 6.01651 -4.46604
465 1 7.71267 -12.623 3.13273 -4.58718
466 1 6.58134 -14.126 4.39248 -4.52192
467 1 6.30371 -11.2915 7.53659 -4.53431
468 1 9.26965 -13.9196 7.64217 -4.40958
469 1 9.11947 -11.5079 4.67668 -4.55308
470 1 10.4125 -15.2898 3.16503 -4.52972
471 1 10.7087 -12.6654 5.94967 -4.50398
472 1 13.3263 -14.5275 6.12635 -3.78897
473 1 13.3209 -12.6604 2.78351 -4.44172
474 1 11.9218 -13.9787 4.33393 -4.51586
475 1 11.6691 -11.3349 7.58117 -4.45978
476 1 13.3145 -12.6471 8.47052 -4.68653
477 1 14.4932 -11.2937 4.38011 -4.37922
478 1 15.1029 -12.9974 6.07056 -3.69995
479 1 15.6329 -12.6379 8.50676 -4.39407
480 1 -17.678 -7.84925 3.6467 -4.66286
481 1 -18.9185 -5.45337 8.43041 -4.22062
482 1 -16.8449 -9.15599 7.24777 -4.61416
483 1 -16.3932 -6.50058 5.049 -4.65212
484 1 -15.5884 -10.4083 3.57628 -4.57837
485 1 -15.1226 -7.82465 6.37386 -4.59397
486 1 -12.7759 -10.0468 5.97204 -4.59493
487 1 -12.5788 -7.96139 3.19051 -4.42401
488 1 -14.2283 -8.84899 4.5583 -4.61173
489 1 -14.0452 -6.06007 7.6334 -4.51037
490 1 -11.8601 -8.91749 7.71293 -4.43825
491 1 -11.6566 -6.39 4.59421 -4.55944
492 1 -10.2689 -10.3196 2.97158 -4.52771
493 1 -10.4623 -7.66159 6.16854 -4.56764
494 1 -7.96753 -10.3866 5.99741 -4.56966
495 1 -7.84703 -7.80065 3.11372 -4.54643
496 1 -9.17853 -8.98668 4.64593 -4.54288
497 1 -9.19225 -6.40298 7.60801 -4.60351
498 1 -6.57281 -8.99512 7.47735 -4.58802
499 1 -6.62248 -6.47484 4.63865 -4.57938
500 1 -5.14118 -10.1441 3.00375 -4.57474
501 1 -5.17167 -7.78561 6.07885 -4.5798
502 1 -2.71329 -10.3122 6.13488 -4.53668
503 1 -2.74076 -7.53379 2.98484 -4.56933
504 1 -3.85413 -8.95044 4.56243 -4.53584
505 1 -3.9402 -6.48507 7.61344 -4.56152
506 1 -1.23339 -9.13999 7.52967 -4.56935
507 1 -1.39954 -6.35476 4.5119 -4.57837
508 1 -0.183305 -10.1376 2.87103 -4.54522
509 1 -0.131881 -7.75759 5.94208 -4.54868
510 1 2.5719 -10.2207 5.9408 -4.53813
511 1 2.71394 -7.77074 2.93293 -4.50359
512 1 1.31117 -8.90858 4.34744 -4.53882
513 1 1.25036 -6.52465 7.43541 -4.59622
514 1 3.79168 -8.92412 7.51261 -4.49835
515 1 3.98107 -6.44954 4.54643 -4.58354
516 1 5.18022 -10.0337 2.83859 -4.58232
517 1 5.30985 -7.74458 5.96416 -4.56615
518 1 7.8353 -10.0764 6.1853 -4.52452
519 1 7.75604 -7.633 2.76948 -4.56258
520 1 6.58104 -8.94031 4.39212 -4.47279
521 1 6.40553 -6.25166 7.41137 -4.53935
522 1 8.99852 -8.70146 7.54921 -4.57427
523 1 9.06338 -6.50665 4.51264 -4.50769
524 1 10.292 -10.1026 3.20704 -4.53438
525 1 10.4989 -7.49968 6.16554 -4.54627
526 1 12.9969 -10.0225 6.06257 -4.49244
527 1 12.9826 -7.30659 3.33512 -4.54303
528 1 11.6152 -8.85989 4.61392 -4.56346
529 1 11.8978 -6.21083 7.67472 -4.56142
530 1 14.4724 -9.04286 7.67969 -4.49692
531 1 14.4568 -6.03553 4.65382 -4.27354
532 1 15.4225 -10.0012 2.56649 -4.40846
533 1 15.5016 -7.54612 6.23306 -4.63758
534 1 17.4453 -6.86761 2.88842 -4.22452
535 1 16.3326 -8.48117 4.20891 -3.63588
536 1 16.9721 -6.43005 7.72335 -4.21345
537 1 18.4365 -5.12224 4.13841 -4.02903
538 1 -17.9942 -4.96942 6.04698 -4.38643
539 1 -17.142 -3.02567 3.03255 -4.33365
540 1 -19.0786 -4.01347 4.21303 -4.4481
541 1 -19.351 -1.78116 5.40523 -3.99577
542 1 -16.7952 -3.35854 7.40103 -4.53701
543 1 -17.2315 -1.05358 4.38731 -5.28168
544 1 -15.0316 -5.61016 3.37407 -4.48862
545 1 -15.6004 -2.27421 5.81502 -4.2441
546 1 -12.9221 -4.8984 5.95854 -4.54293
547 1 -13.0929 -2.44491 2.88144 -4.58103
548 1 -14.2378 -3.67362 4.4864 -4.54833
549 1 -14.2347 -1.25181 7.52411 -4.54148
550 1 -11.5379 -3.64857 7.5182 -4.51066
551 1 -11.7086 -1.17532 4.37237 -4.53749
552 1 -10.3016 -5.14263 3.02423 -4.52328
553 1 -10.4045 -2.27921 6.05594 -4.46712
554 1 -7.88093 -5.09858 6.09099 -4.56786
555 1 -7.89094 -2.41246 3.08105 -4.52893
556 1 -9.11276 -3.75538 4.61022 -4.55346
557 1 -9.17067 -1.16423 7.56206 -4.52299
558 1 -6.55987 -3.95108 7.70363 -4.5262
559 1 -6.42622 -1.30588 4.63485 -4.52739
560 1 -5.21127 -5.01286 3.29359 -4.56461
561 1 -5.22888 -2.60907 6.19938 -4.56236
562 1 -2.83525 -5.16787 6.06239 -4.56459
563 1 -2.59177 -2.4706 2.9637 -4.54089
564 1 -3.88849 -3.61987 4.55623 -4.54637
565 1 -3.8183 -1.32859 7.63 -4.59371
566 1 -1.40922 -3.95258 7.52064 -4.58368
567 1 -1.3939 -1.1824 4.48579 -4.55788
568 1 0.129155 -5.20621 3.03265 -4.53446
569 1 -0.0209347 -2.59714 5.98376 -4.53993
570 1 2.72699 -5.16797 6.08997 -4.59911
571 1 2.64861 -2.55594 3.15665 -4.52109
572 1 1.31317 -3.89315 4.59101 -4.60427
573 1 1.24028 -1.17522 7.49179 -4.5452
574 1 3.93421 -3.81716 7.6174 -4.58424
575 1 3.97356 -1.12608 4.66118 -4.55444
576 1 5.21994 -5.10963 3.13621 -4.52626
577 1 5.14893 -2.40525 6.23401 -4.54117
578 1 7.96481 -4.93495 6.0546 -4.56562
579 1 7.5985 -2.40532 3.1249 -4.58528
580 1 6.37089 -3.78072 4.72435 -4.57982
581 1 6.39636 -1.20827 7.70517 -4.5677
582 1 9.08081 -3.58058 7.66586 -4.57079
583 1 8.98906 -1.0775 4.54499 -4.55753
584 1 10.2319 -4.88198 3.09511 -4.53767
585 1 10.435 -2.44617 6.0728 -4.53685
586 1 13.2847 -4.8893 6.26508 -4.54261
587 1 12.8846 -2.61109 3.05597 -4.49419
588 1 11.7564 -3.84778 4.7908 -4.48748
589 1 11.5815 -1.07023 7.62627 -4.59757
590 1 14.4936 -3.54324 7.77389 -4.59133
591 1 13.9315 -1.3053 4.7813 -4.48918
592 1 16.1488 -4.83153 3.09999 -5.07955
593 1 15.7701 -2.25663 6.2668 -4.30433
594 1 17.8662 -4.75072 6.39222 -3.46218
595 1 18.2401 -1.98925 2.66944 -4.36532
596 1 17.1455 -3.24728 4.59882 -4.58982
597 1 16.9416 -0.445066 7.43774 -4.35886
598 1 19.1779 -0.521427 8.16712 -4.37958
599 1 19.3273 -0.276821 3.80343 -4.34901
600 1 -19.4907 -0.0631999 3.74014 -4.10023
601 1 -17.4758 0.595307 6.34363 -4.42954
602 1 -17.8866 3.02601 3.35788 -4.46793
603 1 -18.935 1.90725 5.00852 -4.46014
604 1 -18.6274 3.7967 6.71855 -4.17959
605 1 -16.0859 1.97477 7.60513 -4.63511
606 1 -16.8508 4.41592 5.04773 -4.96275
607 1 -15.6009 0.0885863 3.19968 -4.32311
608 1 -14.97 3.16391 5.8325 -4.35342
609 1 -12.9721 0.0712473 6.01564 -4.55312
610 1 -12.9237 2.61381 2.96976 -4.59627
611 1 -14.2549 1.48149 4.48063 -4.47231
612 1 -13.8159 4.24188 7.55593 -4.52869
613 1 -11.5695 1.25011 7.3686 -4.52069
614 1 -11.5631 3.90064 4.4442 -4.59757
615 1 -10.2568 -0.0178088 2.86875 -4.59073
616 1 -10.176 2.47216 5.74498 -4.51548
617 1 -7.8211 0.103021 6.12734 -4.53931
618 1 -7.5026 2.68464 2.84836 -4.53604
619 1 -8.86581 1.32938 4.27623 -4.51802
620 1 -8.95011 3.87868 7.23794 -4.58149
621 1 -6.34363 1.2853 7.43552 -4.57254
622 1 -6.39519 4.08483 4.537 -4.56085
623 1 -5.2314 -0.0442902 3.10209 -4.52432
624 1 -5.0924 2.63786 5.89665 -4.5764
625 1 -2.59499 0.0159862 6.05144 -4.5327
626 1 -2.41966 2.63247 2.96279 -4.52884
627 1 -3.76888 1.31807 4.50715 -4.56077
628 1 -3.71531 4.09869 7.36258 -4.55989
629 1 -1.20757 1.35526 7.527 -4.56306
630 1 -1.09844 4.07823 4.43117 -4.52792
631 1 0.0146421 0.0251989 3.06638 -4.57222
632 1 0.030167 2.67016 6.05129 -4.53653
633 1 2.58803 0.192749 5.99854 -4.60043
634 1 2.62176 2.73139 2.95364 -4.5302
635 1 1.20142 1.46319 4.50457 -4.55872
636 1 1.42518 3.92262 7.48066 -4.5755
637 1 3.89004 1.43222 7.44917 -4.56464
638 1 3.86012 3.92401 4.53193 -4.54264
639 1 5.20617 0.249229 3.08107 -4.54078
640 1 5.24148 2.82539 6.04262 -4.58459
641 1 7.7339 0.0656105 6.18674 -4.55014
642 1 7.53768 2.87058 3.03297 -4.55577
643 1 6.52513 1.38149 4.6646 -4.54577
644 1 6.64746 4.23273 7.48227 -4.5035
645 1 8.95832 1.5055 7.57307 -4.57335
646 1 9.00474 4.27219 4.32866 -4.51059
647 1 10.24 0.326524 3.02222 -4.54687
648 1 10.0216 3.00516 6.02251 -4.49653
649 1 12.8883 0.314233 6.20286 -4.5419
650 1 12.629 2.78396 3.02854 -4.5474
651 1 11.3603 1.46777 4.7268 -4.53318
652 1 11.2378 4.12214 7.76269 -4.48769
653 1 13.8359 1.59568 7.95027 -4.49781
654 1 13.8994 4.00449 4.61805 -4.47504
655 1 15.152 0.200121 3.40406 -4.57901
656 1 15.0752 2.84393 6.29105 -4.45493
657 1 17.7218 0.455142 5.44986 -4.66691
658 1 17.7113 2.77607 2.6124 -4.53535
659 1 16.2912 1.95869 4.39902 -4.55969
660 1 16.7006 4.13416 7.52467 -4.39718
661 1 19.1935 2.1511 6.18575 -4.49795
662 1 19.3763 4.07056 3.63465 -4.52581
663 1 20.3743 1.88497 4.12519 -4.20606
664 1 -18.9416 6.21542 6.94942 -4.33417
665 1 -17.7332 8.11566 3.39655 -3.39429
666 1 -18.4741 6.24523 4.64986 -4.22295
667 1 -16.6985 6.94325 7.39384 -4.68899
668 1 -16.8959 9.80539 4.65648 -4.56511
669 1 -15.548 5.18695 3.09168 -4.26204
670 1 -15.4751 8.27126 5.79664 -4.51851
671 1 -12.7651 5.49581 5.75961 -4.54341
672 1 -13.0245 7.93473 2.90865 -4.52692
673 1 -14.2427 6.6962 4.37942 -4.57784
674 1 -14.1442 9.05656 7.47153 -4.64365
675 1 -11.4434 6.68706 7.25485 -4.5672
676 1 -11.5526 9.02573 4.30642 -4.45372
677 1 -10.5557 5.13326 2.7264 -4.49018
678 1 -10.0489 7.93004 5.68119 -4.57016
679 1 -7.75595 5.41334 5.9288 -4.56288
680 1 -7.62427 7.76821 2.76354 -4.55955
681 1 -9.08885 6.4156 4.17522 -4.53948
682 1 -8.90411 9.2841 7.28232 -4.54969
683 1 -6.42686 6.59674 7.49786 -4.5778
684 1 -6.49899 9.08678 4.33088 -4.54317
685 1 -4.95744 5.26224 2.98708 -4.50642
686 1 -5.23602 8.02587 6.07884 -4.51532
687 1 -2.39129 5.43762 5.99954 -4.56822
688 1 -2.47308 7.89898 2.97066 -4.54019
689 1 -3.87491 6.75945 4.60194 -4.56076
690 1 -3.77866 9.08879 7.7202 -4.52335
691 1 -0.998369 6.66746 7.55788 -4.50414
692 1 -1.34629 9.3399 4.44377 -4.55629
693 1 0.17766 5.363 2.88579 -4.53569
694 1 -0.074105 7.95086 5.77125 -4.46651
695 1 2.74847 5.38275 6.06002 -4.53414
696 1 2.70321 8.07276 2.98244 -4.56287
697 1 1.5902 6.61642 4.3784 -4.49716
698 1 1.08908 9.25752 7.49735 -4.5746
699 1 3.99138 6.64695 7.71302 -4.55801
700 1 3.8772 9.35474 4.69187 -4.47611
701 1 5.17331 5.36021 3.0845 -4.5393
702 1 5.23775 8.06472 6.10334 -4.5301
703 1 7.87446 5.63615 6.00732 -4.51161
704 1 7.69267 8.18455 2.75996 -4.44047
705 1 6.52074 6.88123 4.47637 -4.52299
706 1 6.62994 9.25161 7.58276 -4.45686
707 1 8.99739 6.95439 7.72284 -4.3641
708 1 8.65031 9.39087 4.5571 -4.53446
709 1 10.1957 5.54676 2.73157 -4.52442
710 1 10.2769 8.22459 5.86136 -4.28589
711 1 12.598 5.28362 6.18291 -4.52332
712 1 12.6193 7.71872 3.01075 -4.52976
713 1 11.3238 6.56218 4.52518 -4.51509
714 1 12.1587 9.75376 8.64811 -4.45838
715 1 14.0549 6.69051 7.49764 -4.3327
716 1 13.9819 8.58023 4.78612 -4.26438
717 1 15.0324 5.39812 2.99473 -4.23022
718 1 15.7525 8.10814 6.2728 -4.86802
719 1 18.1883 4.27474 5.66649 -4.35204
720 1 18.7943 7.5693 3.519 -4.18546
721 1 16.5845 6.85535 4.28365 -4.80153
722 1 16.9473 9.94824 8.36882 -3.65691
723 1 18.5173 6.6308 5.67578 -4.19308
724 1 -16.2073 11.5559 6.17948 -4.1184
725 1 -15.5949 10.673 2.88307 -4.48856
726 1 -15.3384 13.3937 4.89596 -4.24366
727 1 -12.5385 10.2129 6.24158 -4.40761
728 1 -12.3875 12.5101 3.53041 -3.94886
729 1 -14.1447 11.3457 4.79972 -5.02509
730 1 -13.5405 14.4378 6.15299 -4.07323
731 1 -11.3107 11.9157 7.41821 -4.61226
732 1 -11.3785 14.2967 4.90344 -5.38066
733 1 -10.0638 9.96859 2.86484 -4.55054
734 1 -9.84454 12.9016 5.89714 -4.32616
735 1 -7.61284 10.5861 5.80985 -4.47907
736 1 -7.76816 12.9704 2.54596 -4.57047
737 1 -8.90317 11.6082 4.15426 -4.51607
738 1 -8.41033 14.2562 7.1901 -4.57729
739 1 -6.13742 11.8058 7.51083 -4.41285
740 1 -6.30558 14.1719 3.98541 -4.62672
741 1 -5.0832 10.3892 2.95043 -4.54125