ITEM: TIMESTEP
296000
ITEM: NUMBER OF ATOMS
4050
ITEM: BOX BOUNDS ss ss pp
-2.0436570707436569e+01 2.0495125824316659e+01
-2.0345388885725612e+01 2.0361679940354261e+01
-4.0189400000000006e+00 5.8328940000000003e+01
ITEM: ATOMS id type x y z c_peratom
1 1 -11.5981 -14.8288 -1.75316 -3.96258
2 1 -7.2157 -17.9296 -3.35589 -4.38391
3 1 -8.54696 -16.8223 0.0360202 -4.53391
4 1 -6.78468 -18.3726 -0.454971 -3.92662
5 1 -5.98046 -16.1624 -2.57145 -4.6987
6 1 -4.68993 -17.5813 -1.22745 -4.63951
7 1 -2.3837 -17.6919 -3.86454 -4.59926
8 1 -4.48514 -18.9235 -3.22468 -3.93331
9 1 -3.5539 -16.4314 0.705401 -4.36906
10 1 -0.287163 -19.2457 0.924773 -4.18548
11 1 -1.09417 -16.1497 -2.64012 -4.39311
12 1 0.487807 -19.0027 -2.60831 -4.49302
13 1 -0.259542 -17.4831 -0.860209 -4.3983
14 1 3.14513 -18.0077 57.9895 -4.36951
15 1 2.71846 -19.7423 -2.90138 -4.22511
16 1 1.34008 -16.488 0.475045 -4.6015
17 1 3.4182 -19.3154 -0.611373 -4.18565
18 1 3.86031 -16.5251 -2.68052 -4.63682
19 1 5.21544 -17.877 -1.43825 -4.44466
20 1 6.69917 -17.8896 -3.20133 -4.23702
21 1 9.29679 -17.1687 -0.267048 -4.24699
22 1 6.14863 -16.5297 0.250345 -4.45819
23 1 8.90564 -16.8283 -2.64287 -4.12962
24 1 10.7514 -15.4773 0.50368 -4.61217
25 1 -14.6591 -12.5461 -2.38623 -4.15072
26 1 -15.1324 -13.861 -0.210246 -4.27165
27 1 -13.5235 -15.4782 -0.607067 -4.27354
28 1 -12.0203 -12.9471 57.9397 -4.50855
29 1 -13.3858 -14.3953 -3.07428 -4.35877
30 1 -13.9981 -11.7173 -0.25556 -4.20078
31 1 -10.9757 -13.7398 0.242681 -4.85745
32 1 -11.1827 -11.575 -2.76493 -4.4966
33 1 -9.77199 -15.459 -3.90465 -4.01785
34 1 -9.66417 -12.3988 -1.14464 -4.38153
35 1 -7.32046 -15.2039 -1.00512 -4.58061
36 1 -7.28168 -12.6342 58.3274 -4.58326
37 1 -8.51799 -13.9576 -2.48569 -4.60242
38 1 -8.65812 -11.219 0.609028 -4.45735
39 1 -5.86905 -13.9593 0.421148 -4.49632
40 1 -6.0292 -11.2149 -2.59093 -4.52846
41 1 -4.52974 -15.184 58.1274 -4.50532
42 1 -4.75122 -12.5234 -1.07122 -4.51299
43 1 -2.43454 -15.1356 -0.850818 -4.45762
44 1 -2.19971 -12.5627 58.1455 -4.48149
45 1 -3.46394 -13.8063 -2.61058 -4.50215
46 1 -3.58644 -11.2815 0.641591 -4.51219
47 1 -1.02892 -13.9413 0.630133 -4.57631
48 1 -1.07658 -11.1978 -2.4863 -4.53554
49 1 0.277834 -15.3432 -4.49804 -4.29611
50 1 0.149139 -12.5588 -0.958166 -4.43753
51 1 2.50971 -15.213 -1.17288 -4.4781
52 1 2.52784 -12.8267 58.2196 -4.50176
53 1 1.20155 -14.0149 -2.67631 -4.44708
54 1 1.4712 -11.3029 0.736757 -4.53831
55 1 3.77349 -14.0842 0.601916 -4.52107
56 1 3.6719 -11.6048 -2.4289 -4.51812
57 1 5.06124 -15.2021 -4.02665 -4.61955
58 1 5.06788 -12.7773 -0.863203 -4.53098
59 1 7.772 -15.4456 -1.07195 -5.01241
60 1 7.79092 -12.8196 58.2137 -4.41699
61 1 6.4283 -14.0189 -2.50938 -4.36133
62 1 6.19215 -11.3994 0.764163 -4.45575
63 1 8.74859 -14.0923 0.555332 -4.40861
64 1 8.59522 -11.2351 -2.34085 -4.49406
65 1 10.2146 -15.4891 58.1179 -4.17375
66 1 9.81683 -12.4718 -0.706914 -4.37192
67 1 12.2136 -14.5316 -1.14856 -4.23126
68 1 11.7924 -11.7645 -3.64254 -4.42934
69 1 10.746 -13.6522 -2.65694 -4.91031
70 1 11.3317 -11.3808 0.873547 -4.53815
71 1 13.9249 -13.0821 -0.140269 -4.06765
72 1 13.8685 -10.913 -1.42737 -4.92564
73 1 15.6677 -12.4551 -1.82186 -4.02989
74 1 16.0011 -10.5024 -0.538588 -4.01472
75 1 -17.2395 -7.81721 57.7085 -4.21405
76 1 -18.6352 -5.85713 1.54174 -4.08656
77 1 -16.3772 -8.61062 0.902174 -3.65608
78 1 -16.7112 -6.51064 -2.7725 -4.30994
79 1 -15.2003 -10.7705 58.3263 -4.23778
80 1 -15.3223 -7.66256 -1.05724 -4.49412
81 1 -12.4496 -10.2818 -1.17656 -4.44676
82 1 -12.6484 -7.70396 58.1817 -4.51914
83 1 -14.0445 -9.00017 -2.58072 -4.47598
84 1 -13.8358 -6.5685 0.454843 -4.4784
85 1 -11.4875 -8.91362 0.459133 -4.47446
86 1 -11.41 -6.4247 -2.64418 -4.55382
87 1 -9.915 -10.0924 58.2294 -4.56021
88 1 -10.0842 -7.58252 -0.969524 -4.56303
89 1 -7.38683 -10.1276 -0.945817 -4.51931
90 1 -7.53224 -7.52338 58.2466 -4.51215
91 1 -8.73433 -8.81228 -2.41551 -4.54737
92 1 -8.85146 -6.22206 0.487769 -4.494
93 1 -6.23341 -8.74737 0.708094 -4.46836
94 1 -6.10531 -6.38861 -2.58011 -4.53269
95 1 -4.82769 -10.0082 -4.28784 -4.50817
96 1 -4.91065 -7.62951 -0.941754 -4.44819
97 1 -2.35696 -9.88485 -0.98102 -4.50949
98 1 -2.32311 -7.38789 -4.10656 -4.54463
99 1 -3.70634 -8.682 -2.58663 -4.47803
100 1 -3.66924 -6.10584 0.587868 -4.53248
101 1 -0.998792 -8.68509 0.631267 -4.52293
102 1 -1.29003 -6.01868 -2.49436 -4.51478
103 1 0.350262 -9.91575 58.3591 -4.45284
104 1 0.0268381 -7.25129 -0.916529 -4.5109
105 1 2.75448 -10.0704 -0.755076 -4.50991
106 1 2.5474 -7.64686 -4.06635 -4.509
107 1 1.43377 -8.69747 -2.11783 -4.4548
108 1 1.30014 -6.33706 0.82027 -4.48571
109 1 3.9064 -8.77159 0.820442 -4.44931
110 1 3.6771 -6.23829 -2.51934 -4.53586
111 1 5.14165 -10.4537 58.5502 -4.43004
112 1 4.86117 -7.44852 -0.869037 -4.50062
113 1 7.51651 -9.99525 -0.602255 -4.5573
114 1 7.6767 -7.9174 58.5337 -4.50023
115 1 6.29272 -8.81667 -2.24653 -4.49498
116 1 6.30348 -6.36143 0.636137 -4.52367
117 1 8.94309 -8.76893 0.942168 -4.53051
118 1 8.82262 -6.47976 -2.33125 -4.47964
119 1 10.2259 -9.94264 -3.41736 -4.42264
120 1 10.0135 -7.36366 -0.461269 -4.48307
121 1 12.3574 -9.6304 -0.205407 -4.41609
122 1 12.2887 -7.48421 -3.82773 -4.39861
123 1 11.3029 -8.50853 -2.02537 -4.35667
124 1 11.2854 -5.99257 1.05637 -4.50669
125 1 13.8477 -8.34091 0.957216 -4.56768
126 1 13.6375 -6.17946 -2.43859 -4.63389
127 1 14.533 -9.75626 -3.4569 -4.47039
128 1 15.0353 -7.39987 -0.877259 -4.61834
129 1 16.7165 -6.90787 58.546 -4.48199
130 1 16.3935 -8.80533 -2.1271 -4.4675
131 1 16.3001 -5.75541 -0.0997074 -4.46705
132 1 18.5549 -5.4166 58.6025 -3.84237
133 1 -17.9688 -5.05681 -1.09681 -3.84466
134 1 -17.7526 -2.5391 -3.75389 -4.96258
135 1 -18.9059 -2.96013 -1.66399 -4.30754
136 1 -17.4662 -2.01339 -0.105889 -4.5809
137 1 -16.5325 -4.90742 0.803994 -4.4433
138 1 -16.1218 -1.1505 -2.89235 -4.57765
139 1 -15.0208 -5.27954 -3.84667 -4.65476
140 1 -15.3653 -2.5493 -1.16561 -4.46424
141 1 -12.4974 -5.23043 -0.965218 -4.50973
142 1 -12.9327 -2.36468 58.2042 -4.41239
143 1 -13.8244 -3.77751 -2.49153 -4.45876
144 1 -13.9422 -1.35094 0.236671 -4.52415
145 1 -11.2752 -3.79619 0.410138 -4.56144
146 1 -11.3295 -1.23138 -2.60141 -4.52277
147 1 -10.1484 -4.95978 58.2066 -4.53659
148 1 -9.93652 -2.44296 -1.03175 -4.55322
149 1 -7.31213 -5.18496 -0.983385 -4.51836
150 1 -7.6041 -2.42417 -3.983 -4.52124
151 1 -8.70214 -3.92035 -2.50053 -4.57758
152 1 -8.76278 -1.21369 0.543502 -4.53653
153 1 -6.30313 -3.80395 0.570773 -4.51606
154 1 -6.5284 -1.02731 -2.48218 -4.55714
155 1 -5.08929 -4.74507 58.3482 -4.51868
156 1 -5.26915 -2.17391 -0.857695 -4.49873
157 1 -2.52409 -4.70272 -0.949382 -4.49347
158 1 -2.47586 -2.26617 58.5744 -4.47864
159 1 -3.96429 -3.3937 -2.45081 -4.56121
160 1 -3.7797 -1.20645 0.849013 -4.52764
161 1 -1.31579 -3.70558 0.821591 -4.54238
162 1 -1.12417 -1.21538 -2.24255 -4.51907
163 1 -0.0648334 -4.76471 -3.97015 -4.50495
164 1 0.11957 -2.55887 -0.714752 -4.5447
165 1 2.45735 -5.08204 -0.785958 -4.46402
166 1 2.49919 -2.52877 -3.85922 -4.52194
167 1 1.23031 -3.71495 -2.35635 -4.4548
168 1 1.33404 -1.06963 0.689723 -4.55401
169 1 3.77523 -3.89901 0.833963 -4.54858
170 1 3.90343 -1.22793 -2.39124 -4.53495
171 1 5.22976 -5.12879 -3.95828 -4.53465
172 1 5.03644 -2.54945 -0.731744 -4.51627
173 1 7.65656 -5.0405 -0.755645 -4.52286
174 1 7.35134 -2.47228 -3.84862 -4.51855
175 1 6.25401 -3.84533 -2.28404 -4.53266
176 1 6.22018 -1.04627 0.809206 -4.50002
177 1 8.6057 -3.56177 0.906468 -4.51264
178 1 8.62109 -1.12256 -2.26366 -4.43617
179 1 10.1333 -5.15196 -3.79284 -4.52217
180 1 10.118 -2.22673 -0.505385 -4.37649
181 1 12.5572 -4.99076 -0.769098 -4.48494
182 1 12.4434 -2.3685 -3.72138 -4.47914
183 1 11.1291 -3.67186 -2.16861 -4.51106
184 1 11.4702 -1.49302 1.31832 -4.40185
185 1 14.5045 -4.38652 0.373338 -4.50701
186 1 13.3641 -1.33779 -1.77621 -4.42347
187 1 15.181 -5.14517 -3.96688 -4.55492
188 1 15.2522 -2.49863 -0.756447 -4.52732
189 1 17.806 -4.41677 -1.69065 -4.43363
190 1 17.3283 -2.31399 58.0159 -4.59824
191 1 16.1883 -3.39314 -2.70346 -4.59975
192 1 16.4019 -1.41785 1.03864 -4.36949
193 1 18.9932 -2.43811 -0.668537 -4.03254
194 1 18.6185 -1.00278 -2.78441 -3.99455
195 1 -19.2881 -0.885029 -2.7391 -4.38255
196 1 -18.1757 0.113574 0.356063 -4.36234
197 1 -17.6918 2.25014 -3.76131 -4.36616
198 1 -17.5863 0.526851 -2.06264 -4.44129
199 1 -17.5885 4.14334 1.39607 -4.26008
200 1 -16.2449 1.34509 0.817473 -4.54833
201 1 -16.309 3.44068 -2.34309 -4.44368
202 1 -14.9658 -0.00902551 57.6711 -4.51025
203 1 -14.885 2.21243 -0.92076 -4.44085
204 1 -12.5222 0.0409796 -1.04636 -4.52819
205 1 -12.6306 2.54691 58.1105 -4.61334
206 1 -13.8331 1.11834 -2.80956 -4.38542
207 1 -13.469 3.74903 0.226398 -4.48662
208 1 -11.3555 1.25242 0.601649 -4.42144
209 1 -11.4048 3.99435 -2.76778 -4.57324
210 1 -10.1975 0.24682 58.2622 -4.54678
211 1 -10.3851 2.63602 -1.16792 -4.46129
212 1 -7.71064 0.295467 -0.904358 -4.53617
213 1 -7.57973 2.82664 58.291 -4.49369
214 1 -8.95311 1.55614 -2.52759 -4.54497
215 1 -8.73303 3.88403 0.270715 -4.46472
216 1 -6.34251 1.31546 0.734067 -4.54093
217 1 -6.1583 3.79113 -2.36576 -4.48225
218 1 -5.16264 0.294304 -3.84581 -4.51325
219 1 -4.89306 2.47435 -0.840969 -4.54079
220 1 -2.43383 0.0399902 -0.623467 -4.55502
221 1 -2.50651 2.57724 58.4888 -4.4226
222 1 -3.7108 1.17977 -2.24994 -4.45231
223 1 -3.73104 3.94785 0.577926 -4.50125
224 1 -1.19923 1.40278 0.877173 -4.59773
225 1 -1.18703 3.68603 -2.3489 -4.52813
226 1 0.0707005 0.17686 -3.77108 -4.45771
227 1 0.151765 2.57611 -0.71273 -4.54378
228 1 2.72352 0.0899432 -0.767641 -4.54786
229 1 2.5201 2.77655 58.4682 -4.41877
230 1 1.43684 1.38009 -2.26764 -4.55965
231 1 1.43693 3.91373 0.695754 -4.58336
232 1 3.91181 1.44996 0.735194 -4.51308
233 1 3.90179 3.96217 -2.30494 -4.50801
234 1 4.9962 0.249942 -3.85099 -4.43245
235 1 5.15931 2.82612 -0.642445 -4.52357
236 1 7.53462 0.215153 -0.656317 -4.50001
237 1 7.48799 2.76703 -3.88685 -4.36711
238 1 6.22721 1.41749 -2.13898 -4.4334
239 1 6.40513 4.09932 1.01961 -4.51568
240 1 9.01406 1.387 1.04314 -4.45348
241 1 8.6126 3.95159 -2.14768 -4.48916
242 1 9.74938 0.340465 -3.83931 -4.42912
243 1 10.0496 2.73622 -0.617821 -4.53929
244 1 12.383 0.15932 -0.119734 -4.45841
245 1 12.1293 2.6188 -3.4709 -4.56008
246 1 11.174 1.1833 -2.0152 -4.39352
247 1 11.3701 4.13955 0.964756 -4.49571
248 1 13.8947 1.58683 0.977755 -4.59081
249 1 13.6913 3.66545 -2.11174 -4.51927
250 1 14.5111 -0.0311195 -3.47034 -4.38621
251 1 15.1358 2.65029 -0.624627 -4.32152
252 1 17.8397 -0.312705 -0.529956 -4.83467
253 1 17.0796 1.78311 -3.50057 -4.3627
254 1 15.9721 0.72652 -1.67567 -4.32314
255 1 16.5243 4.1135 0.503364 -4.78979
256 1 19.0668 1.03858 1.09573 -4.28223
257 1 18.8582 3.27481 -3.28753 -4.04956
258 1 19.2011 1.02139 58.2188 -4.07666
259 1 -17.5609 4.98085 -1.25338 -4.11083
260 1 -17.4451 7.84055 57.3017 -4.5191
261 1 -17.9423 6.11788 -3.42588 -4.12766
262 1 -16.1504 6.52951 -0.0913755 -4.50169
263 1 -16.3812 9.02328 -3.29941 -3.55473
264 1 -15.6954 4.93602 -4.15206 -5.31598
265 1 -15.0104 8.02902 -1.52742 -4.53662
266 1 -12.7037 5.26295 -1.36994 -4.49519
267 1 -12.6407 7.68844 58.0576 -4.54366
268 1 -14.1272 6.34439 -2.92455 -4.31414
269 1 -13.7719 8.92107 0.35786 -4.44057
270 1 -11.3564 6.21228 0.31837 -4.54041
271 1 -11.343 8.81033 -2.62227 -4.51586
272 1 -10.12 5.28055 58.0693 -4.52923
273 1 -10.026 7.68188 -1.09456 -4.52661
274 1 -7.39637 5.24103 -1.0937 -4.53042
275 1 -7.71699 7.66831 58.081 -4.48041
276 1 -8.85687 6.34166 -2.64184 -4.52747
277 1 -8.55523 8.88672 0.518611 -4.42577
278 1 -6.25247 6.61027 0.574444 -4.4861
279 1 -6.21493 8.89681 -2.54628 -4.44855
280 1 -5.1114 4.87297 58.1803 -4.51702
281 1 -4.98784 7.67033 -1.03625 -4.47006
282 1 -2.45772 5.19861 -1.0372 -4.54758
283 1 -2.53034 7.45005 58.2406 -4.57482
284 1 -3.84915 6.14674 -2.61715 -4.49538
285 1 -3.87739 9.01071 0.437593 -4.50753
286 1 -1.22768 6.36925 0.618821 -4.49195
287 1 -1.25387 8.72907 -2.61967 -4.50801
288 1 -0.103093 4.94791 -3.98965 -4.42985
289 1 0.104312 7.50447 -1.05452 -4.57779
290 1 2.61427 5.26005 -0.825492 -4.53825
291 1 2.39956 7.57736 58.337 -4.47787
292 1 1.2967 6.14292 -2.52012 -4.5242
293 1 1.25755 8.98508 0.341379 -4.48785
294 1 3.80515 6.59169 0.650143 -4.52234
295 1 3.6876 8.7667 -2.50095 -4.4516
296 1 5.03924 5.22607 -4.01094 -4.53151
297 1 5.11014 7.80323 -0.904902 -4.54067
298 1 7.40823 5.46576 -0.691616 -4.51239
299 1 7.30077 7.63671 57.9833 -4.54315
300 1 6.3358 6.51211 -2.49707 -4.41722
301 1 6.61074 9.09802 0.42996 -4.40292
302 1 9.21666 6.56089 0.456044 -4.26167
303 1 8.57119 9.08373 -3.02267 -4.61971
304 1 9.74822 5.21266 -3.84571 -4.58154
305 1 10.1323 8.04482 -1.61302 -4.23926
306 1 12.4545 5.2461 -0.838767 -4.44923
307 1 12.6257 7.28091 57.6385 -4.92065
308 1 11.464 6.45473 -2.76547 -4.4241
309 1 11.642 9.34731 1.26523 -4.45696
310 1 13.7077 6.54615 0.580671 -4.48905
311 1 13.283 9.01786 -3.11047 -4.15192
312 1 14.6355 4.70331 58.3121 -4.53846
313 1 15.5226 7.85349 -0.387751 -4.53251
314 1 18.2216 4.94085 -1.31649 -3.9745
315 1 16.3866 6.22422 57.9084 -4.62926
316 1 16.6485 6.53359 -2.07881 -3.65983
317 1 16.4454 8.5204 1.79721 -4.35842
318 1 18.5841 5.13018 1.10249 -4.12432
319 1 -15.7165 12.5946 1.83875 -4.09172
320 1 -14.8882 10.615 58.1936 -4.68542
321 1 -14.9861 13.1135 -0.690093 -3.96266
322 1 -12.504 10.2014 -1.05327 -4.56078
323 1 -12.5142 12.8936 -3.99751 -4.83524
324 1 -13.808 11.7543 -2.33055 -4.31251
325 1 -13.5517 13.6425 1.23663 -4.79802
326 1 -11.0203 11.2373 0.493109 -4.42943
327 1 -11.8419 14.3015 -2.19608 -4.1818
328 1 -10.0782 10.1827 58.2591 -4.53202
329 1 -10.2561 12.7776 -1.23614 -4.46128
330 1 -7.63111 10.2641 -1.28703 -4.52077
331 1 -7.51417 12.7933 57.8912 -4.53853
332 1 -8.83198 11.6755 -2.81891 -4.51985
333 1 -9.0414 13.9612 0.256544 -4.43692
334 1 -6.36189 11.4699 0.280198 -4.52991
335 1 -6.23061 14.0146 -2.92626 -4.55774
336 1 -4.87138 10.0948 58.0544 -4.49974
337 1 -4.99548 12.7372 -1.31091 -4.44834
338 1 -2.43702 10.1395 -1.07126 -4.51109
339 1 -2.3948 12.6325 58.2009 -4.59401
340 1 -3.71075 11.3507 -2.73315 -4.55328
341 1 -4.19885 14.07 0.419438 -4.32846
342 1 -1.50982 11.4105 0.734371 -4.54978
343 1 -1.26263 13.9137 -2.51973 -4.52204
344 1 0.180604 10.1709 58.2557 -4.4859
345 1 -0.140204 12.6072 -0.847969 -4.51811
346 1 2.74281 10.2678 -1.0139 -4.54221
347 1 2.57219 12.9005 58.3669 -4.42977
348 1 1.31872 11.5711 -2.5274 -4.50183
349 1 1.17195 13.9354 0.724084 -4.57289
350 1 4.00186 11.4032 0.692579 -4.57473
351 1 3.95381 14.0083 -2.24736 -4.44405
352 1 4.68823 9.98808 58.0277 -4.46415
353 1 5.29118 12.7926 -0.728721 -4.34596
354 1 7.53537 10.484 -1.40032 -4.35526
355 1 7.10386 12.4013 58.0044 -4.44774
356 1 5.75588 11.3787 -2.69494 -4.45331
357 1 6.29687 14.3667 0.880569 -4.45774
358 1 9.19553 12.1175 1.1756 -4.45239
359 1 7.90241 13.7278 -2.54088 -4.26746
360 1 9.90748 10.0337 57.7598 -4.38189
361 1 9.1531 12.2363 -1.24082 -4.86906
362 1 11.9381 9.52497 -1.15356 -4.76103
363 1 12.0811 12.4946 57.7848 -4.19916
364 1 10.9313 11.2641 -2.7559 -4.63256
365 1 10.814 13.785 1.45599 -4.50717
366 1 13.4493 10.7984 1.60227 -4.47918
367 1 12.6616 12.9839 -2.26611 -4.27237
368 1 14.8198 9.82097 57.691 -3.95719
369 1 13.5447 11.181 -0.805001 -4.41689
370 1 15.0855 9.7679 -1.81171 -4.1361
371 1 -13.5924 15.0674 -0.596652 -4.12602
372 1 -12.6197 15.8664 1.50663 -4.21427
373 1 -9.58853 15.4794 57.8297 -4.37584
374 1 -8.02844 15.0991 -1.60037 -4.50948
375 1 -8.46796 17.6704 57.7289 -4.39858
376 1 -9.31014 16.7913 -2.53207 -4.43976
377 1 -6.55108 16.1095 -0.00365288 -4.77537
378 1 -7.64167 18.4063 -2.3873 -3.55386
379 1 -5.08406 15.7063 58.0417 -4.52832
380 1 -5.60971 17.9315 -1.16632 -4.66381
381 1 -2.9614 15.1762 -1.28782 -4.5542
382 1 -2.55076 17.9633 58.0806 -4.46536
383 1 -3.88785 16.9405 -2.59989 -4.47328
384 1 -5.18802 19.0037 1.02499 -3.98187
385 1 -1.77647 16.4445 0.379431 -4.51739
386 1 -0.782383 18.6441 -2.70376 -3.86212
387 1 0.0832927 15.1266 -4.17087 -4.38665
388 1 -0.0658339 17.5287 -0.751331 -4.61315
389 1 2.39188 15.1628 -0.7926 -4.51215
390 1 2.70033 17.8291 -3.27646 -4.44241
391 1 1.16546 16.3915 -2.41125 -4.62317
392 1 0.827432 19.2198 0.661612 -4.35371
393 1 3.39317 16.7303 0.736596 -4.60945
394 1 2.66164 19.1258 -1.25444 -4.02097
395 1 5.0777 15.5589 -3.79665 -4.20583
396 1 4.82787 18.0641 -0.576164 -4.48814
397 1 8.23431 15.8054 -1.38406 -4.8664
398 1 8.83053 17.5021 -2.98753 -4.09926
399 1 5.96781 16.4291 -1.78772 -4.20748
400 1 5.7349 18.8061 1.47215 -3.75085
401 1 8.10528 15.7696 1.07845 -4.28495
402 1 9.39789 14.5499 -4.15527 -4.57216
403 1 10.9413 13.9442 -0.946738 -4.30252
404 1 10.3804 15.775 -2.28956 -4.28274
405 1 1.26712 19.7155 -3.27863 -4.38107
406 1 -12.1381 -15.7377 1.21812 -4.3331
407 1 -7.18712 -17.9117 1.74958 -3.64167
408 1 -8.87878 -16.419 6.47477 -3.63779
409 1 -6.02346 -18.2428 7.13993 -3.99336
410 1 -6.01662 -16.6678 3.43254 -4.55552
411 1 -4.56743 -17.5866 5.2246 -4.45396
412 1 -2.07206 -17.9581 1.95295 -4.41831
413 1 -2.95471 -18.802 4.01935 -3.94567
414 1 -3.51763 -16.122 6.61659 -4.61141
415 1 -1.34904 -18.8331 5.78672 -3.6439
416 1 -1.07597 -16.54 3.56788 -4.67456
417 1 1.31913 -20.4744 -0.971582 -3.91505
418 1 0.479342 -17.9 4.60528 -4.61653
419 1 2.95245 -17.9365 1.44963 -4.45894
420 1 1.14251 -18.9572 2.61456 -3.71127
421 1 1.40363 -16.3317 6.36415 -4.39945
422 1 4.71421 -18.8377 7.08896 -4.13969
423 1 3.98219 -16.7925 3.41958 -4.33415
424 1 5.31948 -17.5873 5.22632 -4.59181
425 1 7.82785 -17.7005 1.5405 -4.35005
426 1 7.08716 -18.181 3.83179 -3.45736
427 1 6.65438 -16.4441 6.76653 -4.46115
428 1 8.52116 -16.3848 3.38886 -4.38718
429 1 12.8286 -14.7315 8.09361 -4.48444
430 1 -16.9236 -9.77456 3.93753 -4.16276
431 1 -15.8012 -11.9847 3.61559 -4.06849
432 1 -12.9795 -14.5823 2.98018 -3.9322
433 1 -12.7378 -12.5751 1.59717 -4.82372
434 1 -14.8497 -13.5333 2.19034 -4.2625
435 1 -14.2315 -11.6127 5.54668 -4.99575
436 1 -11.6194 -14.1963 5.51284 -4.15818
437 1 -11.3502 -11.3654 3.32928 -4.44786
438 1 -9.80075 -15.4838 1.59756 -4.16345
439 1 -9.9106 -12.6996 4.68661 -4.60578
440 1 -7.4985 -15.3699 4.85034 -4.6221
441 1 -7.3302 -12.942 1.8635 -4.52944
442 1 -8.7437 -14.133 3.20922 -4.49285
443 1 -9.15636 -11.3372 6.45971 -4.49218
444 1 -6.40669 -13.8715 6.23392 -4.508
445 1 -6.26197 -11.5622 3.47881 -4.54656
446 1 -4.83913 -15.1842 2.17017 -4.53235
447 1 -4.82773 -12.616 5.07111 -4.59901
448 1 -2.00868 -15.131 5.15827 -4.43523
449 1 -2.34845 -12.6072 2.13156 -4.56517
450 1 -3.49193 -14.0121 3.69717 -4.60487
451 1 -3.80338 -11.291 6.76416 -4.51802
452 1 -1.11007 -13.5221 6.71483 -4.54256
453 1 -1.23636 -11.2403 3.73999 -4.55485
454 1 0.165301 -15.2659 2.07501 -4.45802
455 1 0.282074 -12.3176 5.2603 -4.50278
456 1 2.82965 -15.2608 4.94253 -4.57513
457 1 2.66333 -12.6706 2.19207 -4.55879
458 1 1.25411 -13.9201 3.70529 -4.54011
459 1 1.17173 -11.1684 7.14591 -4.4279
460 1 3.76724 -13.7248 6.54008 -4.49078
461 1 3.78406 -11.0707 3.75139 -4.476
462 1 5.17755 -15.2804 2.03966 -4.48885
463 1 5.13772 -12.5123 5.09571 -4.58465
464 1 7.97409 -15.0507 5.28787 -4.32925
465 1 7.72084 -12.7611 2.31931 -4.43177
466 1 6.38269 -14.0256 3.79424 -4.52118
467 1 6.32269 -11.5483 7.00164 -4.51843
468 1 9.21349 -13.9511 6.88197 -4.41478
469 1 9.00148 -11.46 3.92659 -4.50017
470 1 10.7683 -15.5863 2.82727 -3.52369
471 1 10.4165 -12.6337 5.35091 -4.63547
472 1 13.6928 -14.3617 5.86764 -3.75321
473 1 12.9951 -12.5892 2.05969 -4.18076
474 1 11.9721 -13.988 4.23207 -4.40488
475 1 11.6688 -11.2526 6.77062 -4.57207
476 1 13.1695 -12.3992 8.13222 -4.68159
477 1 13.9995 -11.0044 3.52806 -4.57261
478 1 14.889 -12.3294 5.43103 -3.61255
479 1 15.5037 -12.1289 7.71556 -4.48053
480 1 -17.6991 -7.75282 2.64379 -4.57381
481 1 -18.6346 -4.79007 8.50215 -4.27409
482 1 -16.7459 -8.92637 6.17563 -4.30087
483 1 -16.2308 -6.48434 3.78442 -4.73944
484 1 -15.2006 -10.0945 2.24065 -4.59007
485 1 -15.0251 -7.69715 5.34849 -4.62369
486 1 -12.5016 -10.0616 4.88256 -4.39955
487 1 -12.4731 -7.53108 2.09118 -4.48719
488 1 -13.8758 -8.73165 3.55921 -4.66501
489 1 -13.9197 -6.12435 6.81814 -4.42098
490 1 -11.9548 -8.91781 6.96628 -4.37495
491 1 -11.4114 -6.19185 3.70626 -4.44023
492 1 -10.0053 -9.87 2.05268 -4.57907
493 1 -10.4705 -7.64042 5.50109 -4.45701
494 1 -7.60439 -10.1794 5.08618 -4.53348
495 1 -7.7331 -7.38226 2.27304 -4.46489
496 1 -8.92614 -8.70915 3.85352 -4.49848
497 1 -8.9736 -6.46812 6.90853 -4.58935
498 1 -6.40222 -8.93543 6.77342 -4.49875
499 1 -6.23185 -6.31698 3.78981 -4.53709
500 1 -4.87233 -10.1329 2.19544 -4.60482
501 1 -5.08366 -7.72442 5.21771 -4.51473
502 1 -2.54353 -9.93249 5.30933 -4.47542
503 1 -2.44029 -7.45383 2.16506 -4.50829
504 1 -3.63877 -8.75957 3.64708 -4.49915
505 1 -3.78907 -6.61962 6.8944 -4.47758
506 1 -1.4264 -8.89244 7.12517 -4.47078
507 1 -1.30715 -6.24177 3.8197 -4.46818
508 1 0.21181 -9.95975 2.31697 -4.50212
509 1 -0.298436 -7.51436 5.67923 -4.45509
510 1 2.46681 -10.1649 5.49938 -4.5241
511 1 2.43038 -7.6641 2.46727 -4.46234
512 1 1.19256 -8.72405 4.13484 -4.48081
513 1 1.11914 -6.26115 7.11628 -4.51215
514 1 3.60751 -8.78432 7.01192 -4.5057
515 1 3.69944 -6.32224 3.91159 -4.56776
516 1 5.19001 -9.8543 2.39783 -4.50567
517 1 5.0526 -7.49104 5.40682 -4.53586
518 1 7.51333 -10.1701 5.5045 -4.53087
519 1 7.61619 -7.43524 2.27693 -4.51396
520 1 6.46507 -8.64068 3.98286 -4.50789
521 1 6.3513 -6.21209 7.00303 -4.55337
522 1 8.88749 -8.83459 6.92954 -4.62809
523 1 8.87908 -6.14579 3.86745 -4.53273
524 1 10.2904 -10.0639 2.45133 -4.54165
525 1 10.1292 -7.33709 5.48881 -4.48005
526 1 12.9744 -9.81779 5.31715 -4.53276
527 1 12.585 -7.31497 2.5837 -4.50953
528 1 11.3313 -8.72144 4.10117 -4.56941
529 1 11.3845 -6.44985 7.24152 -4.5204
530 1 14.2037 -8.58755 6.94727 -4.49099
531 1 13.6823 -5.96312 4.26129 -4.45699
532 1 15.4546 -9.70938 2.14386 -4.26499
533 1 15.3072 -6.99782 5.51435 -4.63294
534 1 16.5284 -5.90295 2.2983 -4.49539
535 1 16.0503 -7.85012 3.504 -3.6513
536 1 16.5932 -5.92367 7.27255 -4.00129
537 1 18.1156 -4.3367 3.26115 -4.42062
538 1 -17.633 -5.1366 5.10983 -4.57016
539 1 -17.0231 -2.97443 1.94308 -4.3106
540 1 -18.6873 -4.10356 3.24747 -4.4313
541 1 -19.0408 -2.04526 4.2422 -3.96098
542 1 -16.247 -3.74975 6.40318 -4.56638
543 1 -16.8854 -1.1072 3.44382 -5.3043
544 1 -14.8257 -5.35481 2.2687 -4.42766
545 1 -15.3158 -2.29252 4.90889 -4.24273
546 1 -12.782 -4.9347 5.1708 -4.50843
547 1 -12.4867 -2.40647 1.88913 -4.45457
548 1 -13.8407 -3.60598 3.55809 -4.509
549 1 -14.0084 -1.26449 6.44758 -4.39625
550 1 -11.4938 -3.75907 6.80937 -4.52624
551 1 -11.3114 -1.31055 3.68116 -4.49055
552 1 -10.0004 -4.8786 2.1429 -4.44119
553 1 -10.1721 -2.61999 5.263 -4.53577
554 1 -7.61607 -5.16803 5.36908 -4.55145
555 1 -7.42513 -2.44912 2.11082 -4.48858
556 1 -8.75941 -3.77441 3.652 -4.45068
557 1 -8.78888 -1.32862 6.71193 -4.55073
558 1 -6.18831 -3.86333 6.69237 -4.52359
559 1 -6.17784 -1.38018 3.8 -4.53542
560 1 -5.04265 -5.04029 2.12358 -4.48619
561 1 -4.90748 -2.66264 5.26857 -4.50783
562 1 -2.48097 -5.05423 5.51436 -4.45414
563 1 -2.45697 -2.2976 2.38749 -4.52897
564 1 -3.60951 -3.89543 3.74063 -4.53007
565 1 -3.80471 -1.38734 6.93092 -4.52701
566 1 -1.22376 -3.84637 7.04632 -4.54245
567 1 -1.13006 -1.02701 3.92478 -4.48674
568 1 0.0691751 -4.98139 2.28255 -4.55675
569 1 -0.00128465 -2.3701 5.55132 -4.47487
570 1 2.33202 -4.951 5.41299 -4.50206
571 1 2.53779 -2.33494 2.19751 -4.49322
572 1 1.22408 -3.60668 3.83342 -4.48984
573 1 0.934402 -0.927927 7.16467 -4.48662
574 1 3.51367 -3.61931 6.99329 -4.53404
575 1 3.51576 -1.13298 4.00336 -4.48073
576 1 5.12066 -5.08374 2.31811 -4.47322
577 1 4.90161 -2.34338 5.49224 -4.50095
578 1 7.61832 -4.87967 5.40785 -4.52083
579 1 7.32719 -2.34857 2.49604 -4.48387
580 1 6.0124 -3.71756 4.08271 -4.4696
581 1 6.17444 -1.26244 7.18497 -4.51033
582 1 8.66014 -3.68956 7.28508 -4.53612
583 1 8.61503 -1.23672 4.2022 -4.46285
584 1 10.07 -4.52297 2.52658 -4.53972
585 1 9.81655 -2.20337 5.90991 -4.52178
586 1 12.45 -4.78815 5.79614 -4.56814
587 1 12.8907 -2.68316 3.01659 -4.29793
588 1 11.1759 -3.42525 4.33802 -4.53414
589 1 11.2126 -0.908995 7.41533 -4.54428
590 1 13.855 -3.39245 7.27186 -4.50105
591 1 13.876 -0.804929 4.19585 -4.56441
592 1 14.7161 -4.38904 2.82947 -5.01889
593 1 15.1769 -2.04456 5.82073 -4.54935
594 1 17.4528 -4.43005 5.58255 -3.57473
595 1 18.4492 -2.52963 1.66972 -4.34231
596 1 16.3665 -3.07262 4.0226 -4.43926
597 1 16.433 -0.20895 6.77722 -4.36155
598 1 18.3888 -0.934691 7.92246 -4.39565
599 1 19.1928 -0.524743 2.80516 -4.3301
600 1 -18.9387 -0.135124 2.64251 -4.0543
601 1 -17.4463 0.39554 5.45108 -4.44808
602 1 -16.8623 2.39338 2.7653 -4.60439
603 1 -18.7244 1.79235 4.12441 -4.4848
604 1 -17.9297 3.65494 5.7002 -4.43045
605 1 -15.9498 1.53366 6.897 -4.63625
606 1 -16.2057 4.01572 4.25091 -4.5528
607 1 -14.9834 -0.238701 2.01851 -4.31284
608 1 -14.6587 2.66309 5.28611 -4.48819
609 1 -12.3783 0.17678 5.24287 -4.53396
610 1 -12.4768 2.66491 2.11989 -4.51416
611 1 -13.7764 1.19769 3.54325 -4.46864
612 1 -13.3423 4.01891 6.5522 -4.54685
613 1 -11.1216 1.2918 6.89497 -4.51321
614 1 -11.2859 3.99116 3.64139 -4.55431
615 1 -10.0842 0.0841723 2.10629 -4.49849
616 1 -9.92382 2.61335 5.13386 -4.47177
617 1 -7.38494 0.0215263 5.35894 -4.51568
618 1 -7.65427 2.68616 2.09855 -4.50926
619 1 -8.654 1.27778 3.70845 -4.5186
620 1 -8.62399 3.899 6.81942 -4.54261
621 1 -6.3281 1.35142 6.99416 -4.46229
622 1 -6.2295 3.75799 3.63672 -4.50843
623 1 -5.01446 0.110643 2.33682 -4.57614
624 1 -4.89369 2.62044 5.26931 -4.46378
625 1 -2.40255 -0.0374776 5.57624 -4.51864
626 1 -2.63848 2.64144 2.31712 -4.51295
627 1 -3.56584 1.18346 3.90539 -4.53947
628 1 -3.6004 3.88674 6.90745 -4.51287
629 1 -1.14894 1.44749 6.93438 -4.49833
630 1 -1.17445 3.90907 3.82764 -4.5396
631 1 0.103287 0.141636 2.27329 -4.47804
632 1 0.139444 2.74374 5.41784 -4.50728
633 1 2.46038 0.253978 5.64648 -4.47003
634 1 2.78706 2.7758 2.28607 -4.49991
635 1 1.49655 1.5782 3.80909 -4.45066
636 1 1.24996 4.11824 7.00409 -4.50927
637 1 3.81385 1.4246 7.17142 -4.49507
638 1 3.79681 4.01916 3.9831 -4.5124
639 1 4.96509 0.142199 2.51599 -4.51047
640 1 4.89392 2.65945 5.51971 -4.53452
641 1 7.41695 0.0578112 5.6709 -4.56451
642 1 7.46776 2.64066 2.52701 -4.49551
643 1 6.25836 1.38489 4.05205 -4.54826
644 1 6.33264 3.86452 6.93119 -4.54027
645 1 8.78608 1.41762 7.08853 -4.49812
646 1 8.82087 4.09027 4.00737 -4.52938
647 1 10.0972 -0.126572 2.61044 -4.53637
648 1 10.03 2.80912 5.54208 -4.52897
649 1 12.4307 0.310567 5.7648 -4.48444
650 1 12.4015 2.70882 2.51698 -4.57701
651 1 11.1614 1.35198 4.02762 -4.52625
652 1 11.2988 4.17583 7.06631 -4.41892
653 1 13.4999 1.61557 7.31013 -4.41188
654 1 13.8203 3.89048 3.94175 -4.48934
655 1 15.0609 0.100923 2.40951 -4.50041
656 1 14.7985 2.34336 5.49745 -4.44026
657 1 17.7448 0.0315555 4.66947 -4.55006
658 1 17.2516 2.37366 1.88623 -4.52895
659 1 16.1775 1.53153 3.74269 -4.53411
660 1 16.1956 3.8765 6.6618 -4.44334
661 1 19.1914 1.70104 5.4575 -4.37563
662 1 18.8595 3.5835 2.97517 -4.54131
663 1 20.3359 1.68277 3.16028 -4.15788
664 1 -18.3613 5.90367 5.57111 -4.4855
665 1 -16.4486 7.4669 2.17939 -4.28835
666 1 -17.6619 5.67476 3.19547 -4.37985
667 1 -16.3763 6.73413 6.44896 -4.63867
668 1 -16.1984 9.33131 3.7648 -4.52831
669 1 -15.3018 4.72819 1.12961 -4.40682
670 1 -14.8966 7.85817 4.91059 -4.36422
671 1 -12.6236 5.48909 4.86693 -4.07652
672 1 -12.7576 7.40011 1.78316 -4.46045
673 1 -14.5186 6.32593 2.94981 -4.66467
674 1 -13.6426 8.96653 6.51783 -4.54648
675 1 -11.2641 6.39358 6.69924 -4.48264
676 1 -11.2755 8.4341 3.29354 -4.4661
677 1 -10.0514 4.96206 1.87557 -4.4446
678 1 -9.93872 7.49204 5.04216 -4.48615
679 1 -7.3455 5.16249 5.23289 -4.50147
680 1 -7.52241 7.62361 2.30617 -4.47852
681 1 -8.89263 6.07129 3.58432 -4.46993
682 1 -8.72185 8.7673 6.61544 -4.49005
683 1 -6.06353 6.50298 6.83519 -4.5035
684 1 -6.14076 8.88252 3.71844 -4.53429
685 1 -4.93259 5.15196 2.06855 -4.49388
686 1 -4.8332 7.80943 5.33836 -4.44826
687 1 -2.4792 5.21352 5.2884 -4.53033
688 1 -2.60812 7.76261 2.11215 -4.54833
689 1 -3.77171 6.45864 3.64581 -4.50789
690 1 -3.53181 8.82921 6.93828 -4.458
691 1 -1.17187 6.51025 6.83392 -4.4335
692 1 -1.34179 9.02986 3.63595 -4.54426
693 1 -0.0644432 5.04539 2.08665 -4.52601
694 1 -0.0598331 7.68013 4.97401 -4.51974
695 1 2.37991 5.30353 5.41496 -4.45412
696 1 2.28634 7.78542 2.05211 -4.56565
697 1 1.16796 6.3411 3.49604 -4.466
698 1 1.29864 8.93508 6.53944 -4.54589
699 1 4.08806 6.27204 6.70395 -4.52906
700 1 3.73591 9.02333 3.53409 -4.47287
701 1 4.99278 5.36057 2.4503 -4.54013
702 1 5.16435 7.83131 5.20801 -4.51553
703 1 7.60121 5.39871 5.5729 -4.4988
704 1 7.72951 7.72216 1.96504 -4.41351
705 1 6.6276 6.60119 3.793 -4.50213
706 1 6.51105 9.20519 6.78696 -4.32507
707 1 8.80406 6.68392 7.14031 -4.42772
708 1 9.00336 8.78021 3.73601 -4.56802
709 1 9.94628 5.41123 2.34595 -4.41337
710 1 10.2628 7.97623 5.56771 -4.24388
711 1 12.6888 5.23793 5.44515 -4.44028
712 1 12.5322 7.45669 2.46437 -4.46467
713 1 11.2423 6.3846 4.04023 -4.55516
714 1 11.8462 9.60561 8.02838 -4.41303
715 1 13.6335 6.65714 7.24347 -4.37508
716 1 13.8152 8.48667 4.15265 -4.30228
717 1 14.9596 5.03823 2.09717 -4.3515
718 1 15.1787 8.18165 6.20489 -4.76694
719 1 18.2368 3.94438 5.25324 -4.28389
720 1 18.3244 7.12304 2.4216 -4.29077
721 1 16.2167 6.60396 3.36168 -4.41495
722 1 16.7911 9.33679 7.48643 -4.09701
723 1 18.1509 6.34911 4.72223 -4.1902
724 1 -15.7072 11.0174 5.3539 -3.63047
725 1 -15.0114 10.2854 1.89546 -4.58684
726 1 -14.9159 12.7382 4.0011 -4.60148
727 1 -12.187 9.80456 4.97972 -4.47413
728 1 -11.8542 12.4579 2.34632 -4.14729
729 1 -13.3908 11.0905 3.34445 -4.73429
730 1 -13.2022 13.9775 5.18685 -4.05644
731 1 -11.1469 11.5252 6.21823 -4.54836
732 1 -11.1307 14.2978 3.89346 -5.44088
733 1 -9.87638 9.9808 2.1888 -4.56412
734 1 -9.69685 12.6697 4.85241 -4.38761
735 1 -7.35234 10.2132 5.20804 -4.55187
736 1 -7.64761 12.8013 1.70398 -4.50861
737 1 -8.3759 11.3842 3.4396 -4.47968
738 1 -8.42056 14.0726 6.26 -4.61614
739 1 -5.94692 11.3662 6.71454 -4.47326
740 1 -6.39549 14.275 3.15106 -4.61074
741 1 -5.17858 10.3304 2.06343 -4.47748