ITEM: TIMESTEP
352000
ITEM: NUMBER OF ATOMS
4050
ITEM: BOX BOUNDS ss ss pp
-2.0280203829235866e+01 2.0247046293568111e+01
-2.0249476577780765e+01 2.0068989240126204e+01
-4.7792800000000009e+00 5.9089280000000002e+01
ITEM: ATOMS id type x y z c_peratom
1 1 -11.5364 -14.529 -2.25774 -4.12104
2 1 -7.89968 -17.2189 -4.36218 -4.23057
3 1 -8.96987 -16.6577 -0.555453 -4.60881
4 1 -7.12882 -18.0197 -1.02105 -3.68696
5 1 -6.29974 -15.8154 -3.06595 -4.47512
6 1 -5.06739 -17.458 -2.00217 -4.54409
7 1 -2.19786 -17.4792 58.6549 -4.47798
8 1 -4.37058 -17.8909 -4.37642 -4.17215
9 1 -3.65077 -16.5941 -0.376862 -4.44968
10 1 -0.412686 -18.81 -0.198973 -4.35084
11 1 -1.2521 -16.1247 -3.49099 -4.51896
12 1 0.628846 -18.8504 -3.45087 -4.02935
13 1 0.227182 -17.124 -1.88037 -4.55534
14 1 3.10948 -17.3427 -4.52173 -4.56269
15 1 2.86723 -19.3854 -3.18992 -4.30182
16 1 1.55044 -15.9891 -0.282026 -4.58783
17 1 3.4909 -18.9741 -0.829348 -4.203
18 1 4.04953 -15.8953 -2.98629 -4.62156
19 1 5.25349 -17.5922 -1.90147 -4.46395
20 1 6.7257 -17.8308 -3.83526 -4.31491
21 1 9.27729 -16.7781 -0.984052 -4.23465
22 1 6.09588 -16.0756 -0.214629 -4.47407
23 1 8.61302 -16.3502 -3.30821 -4.16659
24 1 10.5646 -15.0116 -0.0773177 -4.64355
25 1 -14.8851 -12.2677 -2.89504 -3.98889
26 1 -14.8397 -13.6531 -0.499161 -4.14254
27 1 -13.1686 -15.1865 -0.609427 -4.31974
28 1 -12.5481 -13.6398 57.9236 -4.38182
29 1 -12.8439 -13.1008 -3.64204 -4.55951
30 1 -13.9733 -11.4964 -0.679997 -4.19829
31 1 -11.4385 -13.5733 0.0233652 -5.061
32 1 -11.3671 -11.3224 -3.36928 -4.43028
33 1 -9.53813 -15.5467 58.8663 -4.26089
34 1 -10.1072 -12.6424 -1.9277 -4.65879
35 1 -7.78022 -14.7473 -1.51396 -4.51455
36 1 -7.03088 -12.6214 59.121 -4.60182
37 1 -8.75602 -13.8293 -3.56081 -4.32367
38 1 -8.93434 -11.4513 -0.0175314 -4.26544
39 1 -6.06196 -13.9341 -0.0732747 -4.49552
40 1 -5.99817 -11.1803 -3.10395 -4.48406
41 1 -4.64891 -15.3915 59.0976 -4.83976
42 1 -4.90492 -12.6661 -1.69226 -4.51829
43 1 -2.40646 -15.1117 -1.70286 -4.53788
44 1 -2.32348 -12.5854 58.9505 -4.45615
45 1 -3.55226 -13.768 -3.28332 -4.38213
46 1 -3.82823 -11.2613 -0.17404 -4.56602
47 1 -1.13245 -13.7648 -0.151211 -4.54578
48 1 -1.42361 -11.2434 -3.16931 -4.4971
49 1 0.263074 -14.8337 59.0855 -4.59854
50 1 0.0498125 -12.3103 -1.66437 -4.48818
51 1 2.81071 -14.4888 -1.65011 -4.50686
52 1 2.77916 -12.3199 58.7784 -4.46434
53 1 1.42511 -13.312 -3.34612 -4.47684
54 1 1.35144 -11.1692 0.0286162 -4.48352
55 1 4.0976 -13.3078 -0.0355751 -4.52927
56 1 3.90292 -11.2511 -3.21923 -4.36073
57 1 5.04804 -14.7127 -4.80329 -4.54127
58 1 5.46035 -12.1608 -1.60741 -4.40965
59 1 7.69799 -14.9063 -1.67444 -4.96879
60 1 7.90437 -12.2891 59.0266 -4.33324
61 1 6.37997 -13.5434 -3.28469 -4.28809
62 1 6.39852 -10.9947 0.240833 -4.48564
63 1 8.89483 -13.4815 -0.211625 -4.42286
64 1 8.33376 -10.9545 -2.84322 -4.44689
65 1 9.81204 -14.9855 59.0077 -4.1552
66 1 9.96549 -11.8753 -1.40822 -4.34324
67 1 12.0785 -14.2495 -1.77116 -4.1854
68 1 11.9084 -11.4343 -4.40099 -4.44936
69 1 10.6512 -13.1674 -3.43909 -4.89637
70 1 11.2497 -11.1588 0.53475 -4.48906
71 1 14.0038 -12.9558 -0.856069 -3.94789
72 1 13.8202 -10.6928 -2.11122 -4.89912
73 1 15.6079 -12.106 -2.59695 -3.92704
74 1 16.0003 -10.1077 -1.37482 -4.13961
75 1 -17.3386 -7.50025 58.6391 -4.24067
76 1 -18.3713 -5.89787 1.05354 -4.18093
77 1 -16.0076 -8.60624 0.360768 -3.61192
78 1 -16.4479 -6.3766 -3.23576 -4.27944
79 1 -14.6093 -10.3491 -4.37698 -4.25505
80 1 -15.198 -7.38247 -1.46177 -4.48179
81 1 -12.2978 -10.1334 -1.60901 -4.53726
82 1 -12.5499 -7.5057 -4.43817 -4.56518
83 1 -13.8321 -8.738 -2.82459 -4.59617
84 1 -13.5054 -6.62773 -0.0755406 -4.39735
85 1 -11.2008 -8.77196 0.101347 -4.4884
86 1 -11.2944 -6.07662 -2.99965 -4.54113
87 1 -9.71008 -10.124 -4.45303 -4.50784
88 1 -9.93047 -7.2948 -1.28813 -4.42156
89 1 -7.45648 -10.1873 -1.55248 -4.52577
90 1 -7.62399 -7.4917 -4.94964 -4.46887
91 1 -8.52447 -8.62015 -3.05377 -4.40812
92 1 -8.50838 -6.15036 0.161792 -4.52961
93 1 -6.28458 -8.65005 -0.133378 -4.51267
94 1 -6.30769 -6.34645 -3.24528 -4.50464
95 1 -4.89564 -9.97986 58.9985 -4.42198
96 1 -4.98878 -7.40853 -1.58525 -4.49618
97 1 -2.45232 -9.73209 -1.48203 -4.46178
98 1 -2.52612 -7.5322 -4.84408 -4.47182
99 1 -3.73061 -8.69427 -3.17604 -4.47902
100 1 -3.63059 -6.22284 -0.0972552 -4.39364
101 1 -1.05495 -8.63114 0.146479 -4.45174
102 1 -1.09029 -6.34777 -3.23663 -4.51566
103 1 0.0608793 -9.99422 -4.53496 -4.47049
104 1 0.219685 -7.35054 -1.53916 -4.4947
105 1 2.76951 -9.95148 -1.4255 -4.47435
106 1 2.68735 -7.43555 -4.65898 -4.51368
107 1 1.49309 -8.76685 -3.00809 -4.5577
108 1 1.49279 -5.9971 0.0690705 -4.43252
109 1 3.89707 -8.61054 0.233901 -4.45528
110 1 3.86306 -5.92714 -3.11375 -4.46192
111 1 5.18187 -10.0998 -4.71324 -4.47319
112 1 5.06244 -7.25002 -1.45321 -4.44304
113 1 7.43914 -9.43117 -1.3189 -4.47928
114 1 7.62543 -7.34051 59.2134 -4.57003
115 1 6.21202 -8.56517 -3.15663 -4.4457
116 1 6.26533 -6.01368 0.1907 -4.48069
117 1 8.91694 -8.30406 0.128425 -4.48476
118 1 8.57031 -5.82227 -2.97649 -4.51328
119 1 10.1006 -9.89617 -4.07384 -4.44862
120 1 10.1479 -7.0859 -1.5794 -4.5278
121 1 12.4135 -9.42545 -0.715403 -4.38639
122 1 12.2851 -7.17665 -4.51611 -4.4629
123 1 11.4804 -8.58557 -2.75705 -4.50229
124 1 11.2867 -5.88866 0.144126 -4.485
125 1 14.1283 -8.15596 0.2823 -4.61863
126 1 13.4047 -5.86101 -2.9698 -4.64738
127 1 14.5014 -9.53924 -4.18688 -4.44104
128 1 15.0106 -6.95692 -1.64982 -4.67049
129 1 16.4284 -6.18645 -4.71585 -4.43474
130 1 16.1677 -8.33744 -3.06285 -4.30422
131 1 16.2926 -5.21313 -0.673665 -4.51941
132 1 18.3404 -4.86353 -4.70622 -3.8027
133 1 -17.9583 -5.19712 -1.58371 -3.92741
134 1 -17.5134 -2.43266 -4.22747 -4.94096
135 1 -18.7032 -2.90651 -2.17817 -4.23877
136 1 -17.3276 -1.89769 -0.564724 -4.66898
137 1 -16.3936 -4.95162 0.260128 -4.45392
138 1 -16.1685 -0.649074 -3.43602 -4.58799
139 1 -14.8848 -5.04878 -4.38669 -4.61905
140 1 -15.1909 -1.97831 -1.72842 -4.44315
141 1 -12.5832 -4.85166 -1.49505 -4.47883
142 1 -12.5363 -2.17614 -4.73916 -4.43665
143 1 -13.8288 -3.36347 -3.06608 -4.44281
144 1 -13.7538 -1.20762 0.0183031 -4.46763
145 1 -11.1197 -3.62132 0.125172 -4.5287
146 1 -11.2216 -1.27874 -2.92389 -4.49072
147 1 -9.90208 -4.83326 -4.56377 -4.51026
148 1 -9.70752 -2.38582 -1.42731 -4.50365
149 1 -7.31948 -4.96821 -1.60675 -4.47944
150 1 -7.31121 -2.43773 -4.74516 -4.52355
151 1 -8.53392 -3.55951 -3.14608 -4.50444
152 1 -8.56493 -1.11608 0.217111 -4.51417
153 1 -6.00515 -3.72963 -0.106907 -4.4918
154 1 -6.05081 -1.15336 -3.17901 -4.44685
155 1 -4.82032 -5.14556 -4.66139 -4.5016
156 1 -4.73508 -2.39271 -1.64434 -4.5081
157 1 -2.37418 -5.00751 -1.75371 -4.54026
158 1 -2.41995 -2.43421 58.8858 -4.48519
159 1 -3.59614 -3.69174 -3.31366 -4.53037
160 1 -3.62913 -1.05362 0.0452444 -4.48718
161 1 -1.26212 -3.76776 -0.11879 -4.4398
162 1 -1.3171 -1.26093 -3.13436 -4.4922
163 1 0.0240047 -4.9595 -4.69527 -4.51554
164 1 0.0980337 -2.53594 -1.5217 -4.51964
165 1 2.68088 -4.78678 -1.45919 -4.41197
166 1 2.58438 -2.19076 -4.72418 -4.50857
167 1 1.39828 -3.69241 -3.18291 -4.49584
168 1 1.21289 -1.13357 0.034669 -4.47763
169 1 3.83172 -3.52898 0.123277 -4.49936
170 1 3.80998 -1.04395 -3.08911 -4.47542
171 1 5.17514 -4.7803 -4.67569 -4.46093
172 1 5.06562 -2.1732 -1.45115 -4.44736
173 1 7.2883 -4.62833 -1.44262 -4.45127
174 1 7.48119 -1.99686 -4.66701 -4.51052
175 1 6.20588 -3.3092 -3.13186 -4.45863
176 1 6.22589 -0.980458 0.325949 -4.42702
177 1 8.71821 -3.60351 0.246214 -4.47488
178 1 8.72232 -0.697686 -3.0598 -4.44205
179 1 9.84564 -4.5884 -4.64459 -4.47108
180 1 9.65424 -1.94248 -1.21844 -4.4234
181 1 12.5006 -4.41585 -1.37756 -4.50869
182 1 12.0879 -1.98592 -4.50387 -4.4365
183 1 10.91 -3.29699 -2.84725 -4.44572
184 1 11.2519 -1.31052 0.274218 -4.35406
185 1 14.429 -3.88807 -0.243924 -4.38191
186 1 13.25 -1.08008 -2.64342 -4.44664
187 1 14.7237 -4.58887 -4.59054 -4.58653
188 1 15.0404 -1.98765 -1.37931 -4.4725
189 1 17.7242 -4.18884 -2.49319 -4.51862
190 1 17.38 -1.8425 59.1662 -4.65323
191 1 15.9251 -3.07849 -3.29002 -4.67148
192 1 16.1799 -1.0712 0.573758 -4.18773
193 1 18.6028 -2.23382 -1.37898 -3.983
194 1 18.697 -0.449283 -3.27389 -3.91244
195 1 -19.3458 -0.977387 -3.59639 -4.33857
196 1 -18.0424 0.3244 -0.295819 -4.30138
197 1 -17.3668 2.63782 -4.23485 -4.30147
198 1 -17.9312 0.70528 -2.70265 -4.43248
199 1 -18.0975 4.26468 1.09171 -4.29491
200 1 -16.2282 1.4943 0.414987 -4.51346
201 1 -15.9797 3.91402 -2.70152 -4.31929
202 1 -14.8234 0.226417 58.7845 -4.51828
203 1 -15.008 2.10667 -1.58745 -4.47117
204 1 -12.553 0.11454 -1.46511 -4.52982
205 1 -12.2675 2.62299 -4.72982 -4.52983
206 1 -13.6074 1.27852 -3.23476 -4.37072
207 1 -13.8092 3.66705 -0.337086 -4.37325
208 1 -11.1873 1.35356 -0.0299493 -4.51593
209 1 -10.8562 3.78953 -3.10782 -4.48947
210 1 -9.79725 -0.0257118 59.401 -4.49967
211 1 -9.70218 2.4234 -1.5995 -4.51932
212 1 -7.30307 -0.0602065 -1.40119 -4.43988
213 1 -7.36534 2.59126 -4.84117 -4.46486
214 1 -8.29483 1.24864 -3.15226 -4.4739
215 1 -8.79071 3.88882 0.0299227 -4.4882
216 1 -6.26227 1.45897 -0.00914153 -4.49846
217 1 -6.12988 3.90919 -3.34586 -4.49297
218 1 -4.87108 0.111375 58.9106 -4.39963
219 1 -4.93747 2.70986 -1.66581 -4.46181
220 1 -2.42712 0.178924 -1.66244 -4.47897
221 1 -2.11146 2.72326 -4.79344 -4.51149
222 1 -3.56199 1.49573 -3.28419 -4.47593
223 1 -3.54842 3.82651 -0.00898019 -4.51166
224 1 -1.072 1.3699 0.0764032 -4.42315
225 1 -1.01074 4.14346 -3.13436 -4.4793
226 1 0.114139 0.129144 -4.51968 -4.48664
227 1 0.183314 2.64805 -1.54713 -4.49013
228 1 2.55144 0.136518 -1.43016 -4.50428
229 1 2.53872 2.96959 -4.57322 -4.47647
230 1 1.50148 1.446 -3.09151 -4.53459
231 1 1.41985 3.81921 0.0418539 -4.45512
232 1 3.78903 1.54766 0.15013 -4.40914
233 1 3.86241 4.12349 -2.97364 -4.53703
234 1 5.14584 0.52072 -4.48143 -4.48539
235 1 5.09313 2.84698 -1.3669 -4.4501
236 1 7.19368 0.298643 -1.48027 -4.43963
237 1 7.78729 3.06032 59.1649 -4.33071
238 1 6.45135 1.81079 -3.09497 -4.4223
239 1 6.1414 4.01812 0.452449 -4.49525
240 1 8.62507 1.39027 0.104586 -4.53834
241 1 8.78521 4.36792 -2.69661 -4.39795
242 1 9.92793 0.726445 -4.59218 -4.42236
243 1 9.90553 2.89753 -1.22658 -4.51591
244 1 12.2391 0.394207 -1.03478 -4.45041
245 1 12.4311 3.402 -4.15115 -4.90115
246 1 11.2604 1.66168 -2.86605 -4.25852
247 1 11.0381 3.91472 0.700476 -4.43755
248 1 13.4602 1.46217 0.69722 -4.48647
249 1 13.6645 4.28517 -2.19259 -4.48174
250 1 14.6615 0.00380249 -4.14336 -4.43686
251 1 14.6956 2.65244 -0.850303 -4.38451
252 1 17.6598 -0.0932312 -1.23976 -4.73303
253 1 16.545 2.66078 -3.76474 -4.34188
254 1 15.7316 1.07493 -2.25654 -4.33776
255 1 16.487 4.05102 0.117029 -5.00875
256 1 18.9898 1.11196 0.582029 -4.24109
257 1 18.2355 4.1611 -3.86406 -4.36008
258 1 18.61 1.85059 -4.57192 -4.1048
259 1 -17.675 4.83074 -1.2332 -4.1402
260 1 -16.849 7.99444 57.8604 -4.39396
261 1 -17.3784 6.50377 -4.23066 -4.13306
262 1 -16.951 6.82057 -0.383248 -4.29403
263 1 -16.4239 8.66132 -3.70049 -4.15404
264 1 -15.3754 5.11626 -4.69757 -5.21325
265 1 -15.2531 7.50401 -1.89642 -4.49547
266 1 -12.5316 5.01306 -1.91478 -4.60057
267 1 -12.3562 7.6968 58.8766 -4.46119
268 1 -13.8221 6.36558 -3.37607 -4.2591
269 1 -13.9793 9.0337 -0.421736 -4.49054
270 1 -11.396 6.41036 -0.349386 -4.51986
271 1 -11.2065 8.9259 -3.29855 -4.49853
272 1 -9.91311 5.11524 58.9086 -4.49967
273 1 -9.90522 7.58552 -1.74136 -4.54924
274 1 -7.49704 4.87064 -1.75614 -4.46066
275 1 -7.44787 7.52072 58.8465 -4.52196
276 1 -8.53565 6.31979 -3.34522 -4.48612
277 1 -8.41828 8.80231 -0.281908 -4.52349
278 1 -6.11876 6.18527 -0.299478 -4.53023
279 1 -6.25965 8.92554 -3.53867 -4.52644
280 1 -4.81962 5.29796 58.9382 -4.45287
281 1 -5.09725 7.83222 -1.78056 -4.54242
282 1 -2.40776 5.24664 -1.50068 -4.52738
283 1 -2.23654 7.65245 59.1171 -4.43871
284 1 -3.71654 6.45846 -3.14524 -4.48537
285 1 -3.60344 9.03713 -0.279728 -4.51186
286 1 -1.04034 6.45463 0.046128 -4.52278
287 1 -0.910847 8.9817 -3.31142 -4.51708
288 1 0.282897 5.58441 -4.6594 -4.46446
289 1 0.118994 7.71494 -1.5665 -4.43046
290 1 2.65892 5.32114 -1.31207 -4.49285
291 1 2.8299 8.09206 -4.54257 -4.24072
292 1 1.5709 6.70259 -3.02328 -4.48517
293 1 1.14937 9.0907 0.28293 -4.451
294 1 3.83349 6.39089 0.449598 -4.4781
295 1 3.96868 9.15927 -2.47743 -4.53475
296 1 5.32625 5.54519 -4.32411 -4.17619
297 1 5.0713 7.72275 -0.93476 -4.65164
298 1 7.61041 5.34163 -0.873689 -4.61069
299 1 8.62376 8.65536 58.2265 -4.10215
300 1 6.67194 6.92764 -2.41187 -4.45457
301 1 6.33198 9.13412 0.515204 -4.51972
302 1 8.79892 6.73172 0.593524 -4.40381
303 1 8.32392 8.5238 -2.87555 -4.33616
304 1 9.93939 5.80151 -4.25049 -3.87688
305 1 9.98544 7.80013 -1.39111 -4.42674
306 1 12.2503 5.43178 -0.822964 -4.54047
307 1 12.4412 7.8833 57.7453 -4.61771
308 1 11.6357 6.7996 -2.75003 -4.36658
309 1 11.5023 9.24683 1.65649 -4.49548
310 1 13.7288 6.18241 0.844698 -4.60561
311 1 12.1022 10.054 58.6037 -4.10484
312 1 13.9364 4.82187 58.4747 -4.33563
313 1 14.8067 7.55709 -0.686044 -4.33733
314 1 17.2856 5.19417 -1.85138 -3.71885
315 1 15.4027 6.67605 58.9347 -4.25189
316 1 15.2288 6.08856 -2.50948 -4.57692
317 1 16.0813 8.26953 1.5406 -4.16675
318 1 18.3941 5.25341 0.896193 -3.74604
319 1 -15.5235 12.6014 1.12946 -3.96665
320 1 -14.7373 10.2509 59.2049 -4.46624
321 1 -14.9302 13.3846 -1.43595 -3.95253
322 1 -12.5584 10.1728 -1.97178 -4.50418
323 1 -12.6531 12.7303 -4.68701 -4.88078
324 1 -13.9631 11.7459 -3.04429 -4.29086
325 1 -13.3131 13.5959 0.328758 -4.79133
326 1 -11.0428 10.9545 -0.434447 -4.38512
327 1 -11.8122 14.2785 -2.88917 -4.22504
328 1 -10.016 10.2135 59.0031 -4.56769
329 1 -10.3403 12.4971 -2.05102 -4.48642
330 1 -7.64393 10.2155 -2.01737 -4.46954
331 1 -7.51945 12.7309 58.5192 -4.52252
332 1 -8.80725 11.6215 -3.59956 -4.47138
333 1 -9.16858 13.9345 -0.582992 -4.50864
334 1 -6.18179 11.2605 -0.492541 -4.52763
335 1 -6.19403 13.7771 -3.70273 -4.55132
336 1 -4.69055 9.96305 58.7292 -4.5532
337 1 -4.91511 12.362 -2.19323 -4.4425
338 1 -2.20711 10.1594 -1.78563 -4.4494
339 1 -2.43212 12.6017 58.9491 -4.52377
340 1 -3.48957 11.2137 -3.55401 -4.4625
341 1 -3.72228 13.6676 -0.435645 -4.41509
342 1 -1.11061 11.5161 -0.128399 -4.49395
343 1 -1.09381 13.8958 -3.42792 -4.54126
344 1 0.453359 10.303 59.0619 -4.45048
345 1 0.168622 12.9153 -1.60213 -4.48345
346 1 2.49322 10.529 -1.18488 -4.58118
347 1 2.77322 12.6883 -4.78671 -4.01761
348 1 1.56815 11.613 -3.12878 -4.46862
349 1 1.40625 14.1028 0.150339 -4.39901
350 1 3.85949 11.8536 0.27319 -4.47886
351 1 4.09053 13.6825 -3.17208 -3.9332
352 1 5.62358 11.0988 58.1724 -4.20238
353 1 5.33929 12.6896 -1.49468 -4.23935
354 1 7.4476 10.235 -1.47583 -4.44767
355 1 7.0837 12.7825 57.2566 -4.98197
356 1 5.63399 10.7906 -2.92265 -4.27216
357 1 6.08408 14.2218 0.685124 -4.21253
358 1 8.49414 11.8179 1.31189 -4.62638
359 1 8.41191 14.462 58.4793 -4.34799
360 1 10.1827 10.1318 57.0147 -4.84036
361 1 8.60221 12.3903 -1.01931 -4.34078
362 1 11.2473 9.71198 -0.731544 -5.01451
363 1 12.1106 11.7546 56.9281 -4.52467
364 1 10.7388 11.6212 -1.97799 -4.33014
365 1 10.2273 13.4917 1.49394 -4.59643
366 1 13.2996 10.6929 1.96021 -4.57261
367 1 12.5415 12.6746 -0.868288 -3.65896
368 1 14.1749 10.476 57.5493 -4.23531
369 1 13.563 10.5707 -0.498441 -4.32891
370 1 13.1428 8.71231 -1.92086 -4.12044
371 1 -13.4464 15.2313 -1.49373 -4.17757
372 1 -12.501 15.8193 0.795327 -4.18388
373 1 -9.29449 15.4304 58.6813 -4.33718
374 1 -7.81322 14.8449 -2.37322 -4.54273
375 1 -8.12571 17.4985 58.4675 -4.456
376 1 -9.04162 16.7018 -3.23518 -4.46503
377 1 -6.62212 16.0583 -0.656772 -4.70886
378 1 -7.11987 17.9936 -3.36522 -3.60473
379 1 -4.9503 15.3343 58.8243 -4.5579
380 1 -5.23199 17.4637 -1.89409 -4.61147
381 1 -2.46361 15.1144 -1.86212 -4.51343
382 1 -2.51096 17.7758 58.8362 -4.50646
383 1 -3.71979 16.4183 -3.33067 -4.40415
384 1 -4.89659 18.5878 0.255192 -4.07974
385 1 -1.2664 15.9982 -0.0968593 -4.3905
386 1 -0.87049 18.4919 -3.44805 -3.63391
387 1 0.476249 15.2253 -4.72537 -4.46988
388 1 -0.281685 17.4659 -1.48648 -4.66947
389 1 2.78277 14.9242 -1.55998 -4.50004
390 1 2.63632 17.9387 -3.63213 -4.59678
391 1 1.30585 16.2261 -2.73976 -4.64583
392 1 0.818012 19.0481 -0.207545 -4.55371
393 1 3.57076 16.4144 0.143681 -4.53544
394 1 2.6793 19.4585 -1.86044 -4.14532
395 1 5.22908 14.2075 57.9852 -3.58118
396 1 4.71489 18.284 -0.739598 -4.33605
397 1 8.20235 17.7641 58.6983 -4.33157
398 1 9.41869 17.9781 56.6693 -4.35519
399 1 6.65802 15.9688 58.6062 -4.55005
400 1 4.16414 19.2859 1.36783 -4.42914
401 1 7.22549 16.0771 1.57096 -4.51709
402 1 9.40413 14.6406 56.3565 -4.56901
403 1 10.4815 13.8425 -0.769533 -4.43126
404 1 9.98394 16.2121 58.0574 -4.47489
405 1 1.16599 19.7467 -3.69944 -4.53848
406 1 -11.9465 -15.7147 1.42751 -4.27489
407 1 -7.62453 -17.5056 1.20213 -3.6989
408 1 -8.9683 -16.1633 6.178 -3.59092
409 1 -6.07728 -18.1793 6.68497 -4.01674
410 1 -6.15967 -16.3704 2.85153 -4.54805
411 1 -4.97231 -17.7053 4.48568 -4.37024
412 1 -2.37495 -18.2283 0.999069 -4.00761
413 1 -2.82949 -18.4896 3.39641 -3.89824
414 1 -3.58503 -16.151 5.59286 -4.52738
415 1 -1.51244 -18.9381 5.48873 -4.01973
416 1 -1.20192 -16.9299 2.57964 -5.29071
417 1 1.32805 -20.0943 -1.46363 -4.14638
418 1 0.361653 -18.004 4.27269 -4.10519
419 1 2.7474 -17.5918 0.856654 -4.47559
420 1 0.705557 -18.4478 1.84437 -4.11466
421 1 0.857796 -15.9548 5.4688 -4.40304
422 1 4.24056 -18.0904 6.54217 -4.41613
423 1 3.91084 -16.4755 2.69757 -4.52553
424 1 5.36711 -17.5759 4.15161 -4.40255
425 1 7.71104 -17.3587 0.952094 -4.47349
426 1 7.70044 -17.368 3.35556 -3.74264
427 1 5.89531 -15.619 5.31734 -4.69484
428 1 8.41516 -15.4588 2.22666 -4.57447
429 1 12.3287 -14.8136 7.30698 -4.48746
430 1 -17.0237 -9.60414 3.58028 -4.28063
431 1 -15.801 -11.7934 3.35667 -4.11867
432 1 -12.7426 -14.0557 2.85619 -4.18417
433 1 -12.7494 -12.042 1.38739 -4.67174
434 1 -14.7329 -13.2898 1.82425 -4.24648
435 1 -14.1411 -11.6697 5.11191 -4.95843
436 1 -11.7773 -14.1545 5.0772 -4.479
437 1 -11.3273 -11.0256 3.00797 -4.4175
438 1 -9.76807 -15.1281 1.10908 -4.19679
439 1 -10.1835 -12.5146 4.38048 -4.58884
440 1 -7.73335 -15.2604 4.27801 -4.59038
441 1 -7.40945 -12.5915 1.46006 -4.58683
442 1 -8.85173 -13.8488 2.80506 -4.52363
443 1 -9.0427 -11.3294 6.04941 -4.51463
444 1 -6.48622 -13.8683 5.69763 -4.5692
445 1 -6.34524 -11.1736 3.06664 -4.51445
446 1 -4.77228 -15.2774 1.31153 -4.51064
447 1 -5.07555 -12.5669 4.44978 -4.55019
448 1 -2.06243 -15.1337 4.08007 -4.26573
449 1 -2.43572 -12.5557 1.38976 -4.52983
450 1 -3.69836 -13.9229 2.93598 -4.58221
451 1 -3.97479 -11.3025 6.17517 -4.53071
452 1 -1.38884 -13.6158 5.7989 -4.50368
453 1 -1.27832 -11.3142 3.14287 -4.50353
454 1 -0.0410842 -15.1387 1.3552 -4.28155
455 1 0.201882 -12.3263 4.58328 -4.4816
456 1 2.55269 -15.0563 4.09635 -4.59064
457 1 2.70254 -12.2952 1.5212 -4.53812
458 1 1.22108 -13.6221 2.80768 -4.56122
459 1 1.30007 -11.4976 6.48542 -4.34017
460 1 4.05653 -14.1534 5.6533 -4.45094
461 1 3.77 -11.0465 3.25096 -4.49064
462 1 5.08018 -14.7606 1.60511 -4.48623
463 1 5.09822 -12.2416 4.73851 -4.54038
464 1 7.81727 -14.5386 4.3068 -4.50153
465 1 7.83576 -12.1361 1.59313 -4.42899
466 1 6.2936 -13.1935 2.96571 -4.52051
467 1 5.94666 -10.933 6.57737 -4.41613
468 1 8.81679 -13.419 6.29759 -4.31941
469 1 8.86629 -10.8801 3.36342 -4.45381
470 1 10.7293 -15.6176 2.20385 -3.63874
471 1 10.1627 -12.3973 4.63399 -4.57215
472 1 12.9626 -14.2651 4.97442 -3.7445
473 1 13.0801 -12.3604 1.46594 -4.35122
474 1 11.6541 -13.545 3.14584 -4.61577
475 1 11.3996 -10.9183 5.99391 -4.49815
476 1 12.5325 -12.4194 7.39276 -4.6708
477 1 14.1608 -11.0671 2.9648 -4.34965
478 1 14.5381 -12.5654 4.74633 -3.63447
479 1 14.8121 -12.4378 7.19401 -4.53438
480 1 -17.202 -7.57484 2.14974 -4.62517
481 1 -18.6217 -5.08853 8.15909 -4.31204
482 1 -16.6097 -8.87127 5.80523 -4.41715
483 1 -15.8201 -6.1933 3.3826 -4.67076
484 1 -15.1206 -9.98265 2.15582 -4.56591
485 1 -14.8971 -7.49178 5.09615 -4.59788
486 1 -12.4663 -9.98592 4.65163 -4.33572
487 1 -12.284 -7.51687 1.83179 -4.42661
488 1 -13.7647 -8.61288 3.37163 -4.63869
489 1 -13.6135 -6.32078 6.54826 -4.45162
490 1 -11.4493 -8.7852 6.66112 -4.25753
491 1 -11.0641 -5.9829 3.25318 -4.47904
492 1 -9.79556 -9.98752 1.61863 -4.52158
493 1 -10.1276 -7.5637 4.86915 -4.44588
494 1 -7.47195 -10.0561 4.86885 -4.5565
495 1 -7.37243 -7.48754 1.74766 -4.45524
496 1 -8.69057 -8.75082 3.31018 -4.49765
497 1 -8.91709 -6.11988 6.29349 -4.52419
498 1 -6.26919 -8.74904 6.35733 -4.50514
499 1 -6.21298 -6.01229 3.29101 -4.49
500 1 -5.07038 -9.95256 1.43289 -4.49861
501 1 -5.07939 -7.4808 4.71614 -4.52898
502 1 -2.46922 -10.0977 4.84914 -4.49371
503 1 -2.35822 -7.32605 1.75418 -4.48066
504 1 -3.71983 -8.7492 3.14502 -4.47218
505 1 -3.89912 -6.28911 6.36589 -4.52385
506 1 -1.18939 -8.85602 6.48678 -4.54104
507 1 -1.16345 -6.13612 3.41006 -4.45365
508 1 0.0249284 -9.91499 1.78703 -4.47903
509 1 -0.03413 -7.51928 4.98859 -4.50453
510 1 2.50155 -10.0166 5.0387 -4.52536
511 1 2.48064 -7.44094 1.83136 -4.47367
512 1 1.28812 -8.71418 3.42727 -4.49418
513 1 1.05072 -6.28871 6.66558 -4.49089
514 1 3.73738 -8.62922 6.48569 -4.4354
515 1 3.68043 -6.00598 3.37706 -4.54029
516 1 5.0742 -9.85733 1.77484 -4.52495
517 1 4.97848 -7.49226 4.68629 -4.5052
518 1 7.49112 -9.89508 5.11927 -4.45276
519 1 7.54124 -7.26927 1.71988 -4.51309
520 1 6.41698 -8.66021 3.34319 -4.49652
521 1 5.97806 -6.0803 6.35102 -4.47581
522 1 8.61871 -8.53116 6.61765 -4.58991
523 1 8.89282 -6.05786 3.29771 -4.49145
524 1 9.93107 -9.6736 1.66899 -4.49585
525 1 10.01 -7.42301 5.00041 -4.47173
526 1 12.796 -9.68436 4.57178 -4.46645
527 1 12.6363 -6.95152 1.7687 -4.43669
528 1 11.27 -8.37391 3.17 -4.53293
529 1 11.1407 -5.94015 6.49299 -4.62129
530 1 13.9086 -8.68226 6.30412 -4.49995
531 1 13.6914 -5.99417 3.70028 -4.39016
532 1 15.6173 -9.71033 1.18538 -4.17409
533 1 15.3265 -7.31137 4.93006 -4.58633
534 1 16.3582 -5.71337 1.68101 -4.48794
535 1 15.9999 -7.87936 2.69863 -3.59853
536 1 16.4341 -5.97098 6.66231 -3.9872
537 1 17.9112 -4.18339 2.59669 -4.44179
538 1 -17.646 -5.24479 4.60606 -4.49205
539 1 -16.9278 -3.00324 1.46892 -4.34873
540 1 -18.7065 -4.05237 2.62223 -4.38329
541 1 -18.8851 -1.9625 3.91732 -3.89716
542 1 -16.296 -3.78494 5.87737 -4.56014
543 1 -16.6897 -1.14804 3.03945 -5.35099
544 1 -14.5254 -5.33781 1.54744 -4.37001
545 1 -15.142 -2.3179 4.49498 -4.23534
546 1 -12.6953 -5.00239 4.8083 -4.42837
547 1 -12.3745 -2.3035 1.52357 -4.49759
548 1 -13.7266 -3.58334 3.06661 -4.44188
549 1 -13.7357 -1.57375 6.37262 -4.3482
550 1 -11.354 -3.82547 6.42387 -4.38863
551 1 -11.1901 -1.1542 3.19418 -4.48698
552 1 -9.79492 -4.85858 1.6867 -4.53064
553 1 -10.0901 -2.53861 4.68563 -4.42829
554 1 -7.39579 -4.75924 4.83876 -4.50134
555 1 -7.13148 -2.46464 1.56103 -4.51075
556 1 -8.56721 -3.48008 3.18657 -4.55071
557 1 -8.72057 -1.30196 6.2779 -4.49005
558 1 -6.11723 -3.52156 6.36414 -4.50127
559 1 -5.96167 -1.18644 3.24411 -4.46282
560 1 -4.8047 -4.81546 1.59897 -4.4161
561 1 -4.78133 -2.33268 4.9302 -4.42076
562 1 -2.59951 -4.98589 4.83676 -4.50196
563 1 -2.37574 -2.25064 1.55873 -4.42284
564 1 -3.59505 -3.5643 3.1283 -4.42401
565 1 -3.64506 -1.08395 6.5665 -4.48066
566 1 -1.2006 -3.93086 6.47138 -4.41083
567 1 -1.28813 -1.08956 3.38643 -4.48421
568 1 -0.128923 -5.00581 1.57381 -4.45146
569 1 -0.0439481 -2.70131 4.76419 -4.46835
570 1 2.33012 -4.99705 5.01744 -4.40713
571 1 2.54658 -2.25877 1.65642 -4.48406
572 1 1.33258 -3.82989 3.13023 -4.46526
573 1 1.06129 -1.4473 6.37494 -4.47362
574 1 3.5568 -3.56719 6.61693 -4.52062
575 1 3.62558 -1.0909 3.34757 -4.42144
576 1 4.90088 -4.81887 1.75125 -4.47118
577 1 4.85734 -2.28247 5.08704 -4.4561
578 1 7.4934 -5.04884 4.81629 -4.55623
579 1 7.31046 -2.46947 1.8641 -4.5675
580 1 6.0356 -3.65188 3.50251 -4.53165
581 1 6.07115 -1.10652 6.58433 -4.45967
582 1 8.55002 -3.56432 6.3997 -4.49252
583 1 8.78264 -1.11535 3.16728 -4.49933
584 1 10.0729 -4.70112 1.90632 -4.39157
585 1 9.91832 -2.22377 4.96094 -4.50475
586 1 12.6414 -4.57682 5.29006 -4.53998
587 1 12.7164 -2.37555 2.19382 -4.12317
588 1 11.3185 -3.63727 3.60518 -4.60376
589 1 11.1373 -1.17257 6.68456 -4.55953
590 1 13.8602 -3.28996 6.89797 -4.53256
591 1 13.5216 -1.08592 3.99265 -4.54293
592 1 14.5119 -4.29043 2.32475 -4.87587
593 1 15.2376 -2.0249 5.4484 -4.5089
594 1 17.2707 -4.53693 4.95834 -3.48896
595 1 18.1363 -2.27282 1.08908 -4.30504
596 1 16.08 -3.02685 3.4148 -4.41416
597 1 16.2991 -0.104755 6.42181 -4.36626
598 1 18.2272 -0.927303 7.51169 -4.44613
599 1 18.8756 -0.450591 2.34922 -4.2941
600 1 -18.722 -0.139064 2.28875 -3.93381
601 1 -16.8514 0.258555 5.11471 -4.42564
602 1 -17.0501 2.57304 2.25981 -4.59591
603 1 -18.465 1.53434 3.92141 -4.53727
604 1 -17.6983 3.38186 5.26275 -4.50371
605 1 -15.4731 1.33557 6.6516 -4.55838
606 1 -15.9689 3.98353 3.76547 -4.57742
607 1 -15.0169 -0.029747 1.72715 -4.37168
608 1 -14.4799 2.40763 4.7981 -4.49822
609 1 -12.4552 -0.0514631 4.97794 -4.45107
610 1 -12.5555 2.55656 1.45178 -4.39632
611 1 -13.4876 1.07777 3.17572 -4.42542
612 1 -13.2182 3.79736 6.21082 -4.52604
613 1 -11.2903 1.30224 6.43511 -4.5138
614 1 -11.5458 3.80331 3.18698 -4.36661
615 1 -9.94219 0.282648 1.68767 -4.49819
616 1 -10.0327 2.65641 4.83781 -4.45642
617 1 -7.5214 0.00111675 4.7717 -4.48672
618 1 -7.4441 2.74035 1.60348 -4.5118
619 1 -8.63307 1.52065 3.33553 -4.51393
620 1 -8.70221 3.83222 6.31952 -4.48017
621 1 -6.36129 1.2205 6.50201 -4.47895
622 1 -6.0802 3.91663 3.15579 -4.48571
623 1 -4.95748 0.231103 1.56763 -4.51469
624 1 -5.13574 2.50553 4.94574 -4.47375
625 1 -2.60923 0.169031 4.83425 -4.49685
626 1 -2.39477 2.52922 1.61637 -4.48467
627 1 -3.76203 1.43084 3.22019 -4.44397
628 1 -3.79977 3.92033 6.3859 -4.56065
629 1 -1.21962 1.30859 6.4024 -4.54842
630 1 -1.14671 3.75239 3.25878 -4.49603
631 1 0.0573709 0.0648075 1.80747 -4.45417
632 1 0.0360776 2.49106 4.84707 -4.55093
633 1 2.44368 -0.000958296 5.11064 -4.49546
634 1 2.61453 2.88993 1.96168 -4.3691
635 1 1.36108 1.2947 3.31089 -4.52274
636 1 1.05225 3.93171 6.47842 -4.52633
637 1 3.6068 1.53331 6.55066 -4.53958
638 1 3.82568 4.0227 3.60656 -4.4984
639 1 4.83025 0.295731 1.80633 -4.51621
640 1 5.09206 2.70833 5.26398 -4.43803
641 1 7.49934 -0.0755311 4.90386 -4.40843
642 1 7.50479 2.71875 1.78534 -4.4949
643 1 6.20278 1.47478 3.44358 -4.46827
644 1 6.19261 3.9839 6.86647 -4.50261
645 1 8.45756 1.3676 6.67088 -4.49078
646 1 8.58104 3.95369 3.57241 -4.48383
647 1 9.98767 0.201018 1.67057 -4.46526
648 1 9.78081 2.69762 5.17501 -4.50415
649 1 12.265 0.475392 5.4943 -4.46831
650 1 12.2552 2.73591 2.37005 -4.57396
651 1 10.9475 1.23156 3.63741 -4.4423
652 1 11.1255 3.6183 6.95057 -4.45497
653 1 13.6045 1.55785 7.06392 -4.4481
654 1 13.7109 3.96692 3.71401 -4.43744
655 1 14.6872 0.173399 2.26325 -4.46233
656 1 14.8579 2.59995 5.23911 -4.39503
657 1 17.4793 0.183859 4.30123 -4.51998
658 1 17.0611 2.16357 1.39189 -4.49653
659 1 16.029 1.67445 3.49431 -4.53321
660 1 16.3865 3.65111 6.59567 -4.3695
661 1 18.9971 1.76608 5.03424 -4.41129
662 1 18.6547 3.61116 2.43496 -4.6087
663 1 19.9519 1.69264 2.77996 -4.21612
664 1 -18.0672 5.71013 5.37022 -4.48841
665 1 -16.7278 7.46765 1.91787 -4.47227
666 1 -17.6317 5.58403 3.01342 -4.35022
667 1 -15.9681 6.5801 6.07966 -4.47017
668 1 -15.6248 9.12633 3.27042 -4.21054
669 1 -15.8313 4.90306 0.376608 -4.77724
670 1 -14.3638 7.2613 4.35325 -4.75826
671 1 -12.7157 5.36996 4.59043 -4.29733
672 1 -12.8604 7.72256 1.14477 -4.53141
673 1 -14.6244 6.31466 2.08923 -4.18511
674 1 -13.1931 8.48718 6.10889 -4.22247
675 1 -11.0009 6.12078 6.05278 -4.39589
676 1 -11.3363 8.49259 2.7638 -4.29292
677 1 -10.3621 4.96921 1.4289 -4.47036
678 1 -9.96923 7.2763 4.26262 -4.49451
679 1 -7.60339 5.10519 4.64846 -4.44999
680 1 -7.37472 7.3444 1.28559 -4.54069
681 1 -8.71277 6.02538 2.73376 -4.50021
682 1 -8.97661 9.04106 5.64656 -4.2888
683 1 -6.47037 6.58206 6.24306 -4.51719
684 1 -5.97636 8.5985 2.75652 -4.50814
685 1 -4.86708 5.20533 1.53833 -4.45502
686 1 -5.00382 7.72455 4.67751 -4.44157
687 1 -2.44996 5.06045 4.77987 -4.51598
688 1 -2.40003 7.77564 1.46975 -4.45394
689 1 -3.59385 6.46742 3.18128 -4.47042
690 1 -3.90948 9.08486 6.33 -4.46333
691 1 -1.40271 6.44477 6.34159 -4.48067
692 1 -1.44622 9.09224 3.18533 -4.50586
693 1 0.199984 5.13396 1.65704 -4.41609
694 1 -0.197964 7.83697 4.78113 -4.46613
695 1 2.25522 5.38385 5.01038 -4.4854
696 1 2.40997 7.66816 1.82008 -4.55444
697 1 1.01178 6.5119 3.25576 -4.4512
698 1 0.970897 8.84224 6.58246 -4.49947
699 1 3.65481 6.36368 6.64714 -4.52396
700 1 3.8257 8.77015 3.45559 -4.30646
701 1 5.07859 5.29466 2.14584 -4.44018
702 1 4.80381 7.95981 5.37894 -4.42764
703 1 7.60881 5.33975 5.2897 -4.4419
704 1 7.24715 7.6673 2.11713 -4.39656
705 1 6.06565 6.546 3.90239 -4.46656
706 1 6.41192 8.83883 6.98602 -4.4498
707 1 8.87887 6.36272 7.09007 -4.45468
708 1 8.54941 8.66114 3.90945 -4.60291
709 1 9.90519 5.38247 2.25123 -4.51645
710 1 10.0587 7.75945 5.52314 -4.32906
711 1 12.4969 4.95439 5.59593 -4.48805
712 1 12.6253 7.33803 2.56369 -4.45626
713 1 11.2006 6.26286 4.13807 -4.58573
714 1 11.9055 9.21224 8.31968 -4.4891
715 1 13.7452 6.51376 6.95527 -4.3258
716 1 13.5908 8.57295 4.26615 -4.21789
717 1 15.2859 4.87264 2.02912 -4.37114
718 1 15.2102 8.14366 6.0971 -4.7286
719 1 17.8703 3.90459 4.70038 -4.31143
720 1 18.0404 7.21561 2.15274 -4.43491
721 1 15.9566 6.71 3.18947 -4.4991
722 1 16.9247 9.31678 7.435 -4.09511
723 1 17.861 6.32532 4.44264 -4.22635
724 1 -14.9264 10.7866 4.84427 -4.2379
725 1 -14.9486 10.2537 1.30026 -4.56572
726 1 -14.446 12.6156 3.31534 -4.5126
727 1 -12.5643 10.0626 4.40612 -4.75794
728 1 -11.5248 12.5143 1.22917 -4.07251
729 1 -12.9766 11.0936 2.361 -4.55787
730 1 -12.7592 13.8281 4.61219 -4.0882
731 1 -10.6769 10.873 5.65746 -4.80441
732 1 -10.8437 14.1075 3.0149 -5.32335
733 1 -9.97765 9.75547 1.23669 -4.49811
734 1 -9.48462 12.3115 4.12454 -4.22286
735 1 -7.48584 9.90038 3.99858 -4.63611
736 1 -7.58894 12.7051 0.688649 -4.51768
737 1 -8.37125 11.26 2.40321 -4.51292
738 1 -7.89752 13.0353 5.59724 -4.51114
739 1 -6.292 11.3436 5.32964 -4.32621
740 1 -6.38703 13.9557 2.22422 -4.61051
741 1 -5.04098 10.2164 1.29366 -4.49619