ITEM: TIMESTEP
366000
ITEM: NUMBER OF ATOMS
4050
ITEM: BOX BOUNDS ss ss pp
-2.0288645312670155e+01 2.0140422504359996e+01
-2.0062609039802808e+01 2.0231878776367246e+01
-4.9693650000000007e+00 5.9279364999999999e+01
ITEM: ATOMS id type x y z c_peratom
1 1 -11.2609 -14.3402 -2.0574 -4.20105
2 1 -7.56962 -17.0782 -4.81061 -4.16486
3 1 -8.82794 -16.4473 -0.582312 -4.4813
4 1 -7.09011 -18.0283 -0.798835 -3.72385
5 1 -5.77628 -16.0552 -3.68177 -4.9217
6 1 -5.12882 -17.6119 -1.91545 -4.28191
7 1 -2.35688 -17.4288 59.2318 -4.54489
8 1 -4.60139 -18.2283 -4.29426 -4.04243
9 1 -3.82415 -16.3239 -0.399635 -4.46459
10 1 -0.69584 -18.5128 -0.128165 -4.38133
11 1 -1.35376 -15.9071 -3.46821 -4.49407
12 1 0.0967632 -18.7633 -3.19422 -4.1598
13 1 -0.163935 -16.9026 -1.72614 -4.49639
14 1 2.78196 -17.3409 -4.60485 -4.5828
15 1 2.28895 -19.2879 -3.28491 -4.32636
16 1 1.24496 -15.8834 -0.114526 -4.59512
17 1 2.90938 -18.6982 -1.07172 -4.20635
18 1 3.76935 -15.985 -3.01883 -4.6035
19 1 4.86754 -17.796 -2.05014 -4.45236
20 1 6.44923 -17.8993 -3.90762 -4.30811
21 1 8.87626 -16.8231 -1.21519 -4.29187
22 1 5.79451 -16.3165 -0.42758 -4.48865
23 1 8.25161 -16.2553 -3.44823 -4.14168
24 1 10.5364 -15.1556 -0.407401 -4.54586
25 1 -14.4659 -12.3418 -3.3654 -3.97026
26 1 -14.6132 -13.4818 -0.657333 -4.02899
27 1 -12.9039 -15.2058 -0.631683 -4.38526
28 1 -12.1756 -13.5094 57.8572 -4.41333
29 1 -12.4714 -13.5348 -4.03355 -4.49251
30 1 -14.1355 -11.3788 -1.31987 -3.82768
31 1 -11.3634 -13.5471 0.239186 -4.93454
32 1 -11.2458 -11.535 -3.75447 -4.61993
33 1 -9.08844 -15.2878 58.7212 -4.18968
34 1 -9.65513 -12.5935 -2.41004 -4.36832
35 1 -7.36039 -15.186 -1.96961 -4.32697
36 1 -7.12101 -12.3927 59.0425 -4.53791
37 1 -8.25715 -13.9069 -3.80839 -4.48114
38 1 -8.65327 -11.2059 -0.286194 -4.29177
39 1 -6.20916 -13.7262 -0.554386 -4.43796
40 1 -5.99983 -10.8692 -3.65018 -4.43147
41 1 -4.42636 -14.8607 58.9473 -4.36581
42 1 -4.85047 -12.3169 -2.0621 -4.47517
43 1 -2.60942 -14.8023 -1.75298 -4.40874
44 1 -1.98377 -12.3261 59.3693 -4.3408
45 1 -3.43374 -13.5779 -3.54187 -4.4968
46 1 -3.51652 -11.3783 -0.284481 -4.49529
47 1 -1.19336 -13.8747 -0.172478 -4.40938
48 1 -0.987198 -10.9153 -3.13074 -4.47188
49 1 0.231463 -14.8392 -4.7931 -4.53916
50 1 0.0869521 -12.4647 -1.7057 -4.53256
51 1 2.58616 -14.5376 -1.45713 -4.47213
52 1 2.74074 -12.1505 -4.87235 -4.51745
53 1 1.55259 -13.5093 -3.25607 -4.445
54 1 1.10628 -11.1293 0.0170982 -4.44228
55 1 3.88742 -13.3354 0.0737405 -4.53284
56 1 3.89503 -10.8027 -3.21608 -4.48627
57 1 4.9369 -14.8615 -4.75396 -4.56306
58 1 5.13815 -12.2694 -1.68555 -4.45921
59 1 7.34494 -14.9494 -1.61186 -4.9989
60 1 7.49517 -12.348 -5.06236 -4.33875
61 1 6.38125 -13.5275 -3.33573 -4.32511
62 1 6.34076 -11.1067 0.0881491 -4.5417
63 1 8.72764 -13.5036 -0.368891 -4.44716
64 1 8.30329 -10.9995 -3.20364 -4.45678
65 1 9.65763 -15.316 59.1701 -4.17901
66 1 9.88101 -12.0114 -1.67815 -4.2487
67 1 12.0256 -14.5339 -2.27781 -4.31137
68 1 11.3844 -11.7055 -4.888 -4.43288
69 1 10.3444 -13.5069 -3.6507 -4.90431
70 1 11.2669 -11.225 0.24675 -4.49883
71 1 13.4511 -12.8972 -1.33368 -3.85984
72 1 13.4705 -10.9075 -2.57531 -4.98966
73 1 15.2909 -12.5216 -2.86745 -4.18126
74 1 15.6579 -10.5597 -1.67088 -3.93622
75 1 -17.0631 -7.53651 58.3419 -4.20155
76 1 -18.1283 -5.67057 0.599134 -3.99441
77 1 -15.6722 -8.75634 -0.0956898 -3.58558
78 1 -16.3705 -6.31924 -3.87147 -4.3764
79 1 -14.5442 -10.4477 59.264 -4.33186
80 1 -15.1718 -7.57681 -2.14162 -4.41396
81 1 -12.3294 -10.0918 -2.22533 -4.61612
82 1 -12.3034 -7.58542 59.1634 -4.546
83 1 -13.5767 -8.88153 -3.59837 -4.55224
84 1 -13.6244 -6.47229 -0.708007 -4.48357
85 1 -11.0662 -8.81667 -0.578847 -4.43696
86 1 -11.1164 -6.29963 -3.49453 -4.59803
87 1 -9.61228 -10.1152 59.396 -4.42622
88 1 -9.6396 -7.41557 -1.91241 -4.55853
89 1 -7.2439 -9.9941 -1.68796 -4.45158
90 1 -7.32413 -7.30438 -4.96839 -4.48017
91 1 -8.31982 -8.74568 -3.38365 -4.52434
92 1 -8.66664 -6.07678 -0.21293 -4.45318
93 1 -6.12503 -8.55811 -0.140585 -4.5356
94 1 -5.89434 -6.01612 -3.42571 -4.47532
95 1 -4.54485 -9.7354 -5.16544 -4.5134
96 1 -4.75906 -7.41351 -1.77508 -4.49445
97 1 -2.15483 -9.79654 -1.46754 -4.46688
98 1 -2.15195 -7.31763 -4.91032 -4.47295
99 1 -3.44103 -8.62285 -3.36323 -4.3738
100 1 -3.59462 -6.04144 -0.0865722 -4.45309
101 1 -0.813402 -8.45211 -0.088091 -4.44109
102 1 -1.24284 -5.90282 -3.29282 -4.47976
103 1 0.407247 -9.78245 -4.77679 -4.46409
104 1 0.181561 -6.97631 -1.74939 -4.46493
105 1 2.53482 -9.79622 -1.56385 -4.42798
106 1 2.68967 -7.2939 -4.91431 -4.4698
107 1 1.47529 -8.4308 -3.17923 -4.51217
108 1 1.51029 -6.15993 0.0665494 -4.43654
109 1 3.84339 -8.82253 0.155241 -4.46367
110 1 3.80797 -5.98203 -3.27345 -4.39346
111 1 5.32497 -9.73444 -4.77288 -4.38765
112 1 4.67475 -7.29538 -1.46079 -4.43311
113 1 7.48311 -9.64127 -1.34766 -4.47304
114 1 7.56946 -7.53861 -4.71019 -4.37812
115 1 6.19495 -8.32526 -2.96084 -4.39496
116 1 6.18583 -6.22993 0.0139852 -4.49851
117 1 8.76953 -8.59832 0.345334 -4.46182
118 1 8.60391 -6.20086 -3.01806 -4.49069
119 1 9.98404 -9.8087 -4.27865 -4.50142
120 1 9.95086 -7.3434 -1.35554 -4.50031
121 1 12.3873 -9.55843 -0.981071 -4.39681
122 1 12.1958 -7.26644 -4.72267 -4.40603
123 1 11.4146 -8.4992 -2.92113 -4.39285
124 1 11.2784 -5.94995 0.178625 -4.42091
125 1 13.9389 -8.23578 0.205539 -4.60333
126 1 13.6624 -6.06159 -3.14887 -4.64334
127 1 14.1754 -9.71188 -4.53552 -4.51496
128 1 15.0704 -7.34543 -1.77941 -4.62983
129 1 16.6603 -6.57817 -4.69076 -4.31822
130 1 15.9741 -8.87495 -3.28646 -4.32174
131 1 16.2315 -5.54191 -0.864091 -4.41284
132 1 18.2235 -4.87572 -4.85389 -3.72734
133 1 -17.6874 -5.29429 -2.25434 -3.85165
134 1 -17.3256 -2.554 -4.66562 -4.96601
135 1 -18.6703 -3.10369 -2.61682 -4.28651
136 1 -17.4261 -1.8644 -1.07072 -4.60887
137 1 -16.2736 -4.7914 -0.473981 -4.57797
138 1 -16.0736 -0.709262 -3.75129 -4.54293
139 1 -14.8181 -4.83379 -5.02948 -4.64264
140 1 -15.3218 -2.17694 -2.05946 -4.47942
141 1 -12.494 -4.9174 -2.11109 -4.54454
142 1 -12.2389 -2.65482 58.9764 -4.49152
143 1 -13.7801 -3.35611 -3.50382 -4.37952
144 1 -13.8224 -0.919375 -0.618753 -4.44329
145 1 -11.1567 -3.76369 -0.402627 -4.4734
146 1 -11.133 -1.15144 -3.72604 -4.48835
147 1 -9.64723 -4.98316 59.3962 -4.50376
148 1 -9.97156 -2.49528 -2.10717 -4.5199
149 1 -7.39298 -4.88761 -1.85662 -4.50218
150 1 -7.05435 -2.28292 59.2215 -4.49342
151 1 -8.44844 -3.49789 -3.43119 -4.53694
152 1 -8.77243 -1.12702 -0.657577 -4.44656
153 1 -6.28662 -3.60553 -0.324818 -4.45459
154 1 -5.92367 -0.8535 -3.60237 -4.47772
155 1 -4.46881 -4.85069 -5.09035 -4.44749
156 1 -4.98814 -2.33848 -1.83192 -4.45982
157 1 -2.54357 -4.66925 -1.71823 -4.49716
158 1 -2.37841 -2.20349 -4.79227 -4.37422
159 1 -3.67244 -3.49501 -3.36736 -4.46573
160 1 -3.55747 -1.14533 -0.20679 -4.48889
161 1 -1.1292 -3.57432 -0.100223 -4.49161
162 1 -1.2262 -1.00788 -3.00303 -4.50673
163 1 0.272583 -4.6614 -4.86572 -4.51213
164 1 0.179933 -2.35609 -1.68644 -4.513
165 1 2.69106 -4.72383 -1.56995 -4.36124
166 1 2.80447 -2.05701 -4.69311 -4.50401
167 1 1.59036 -3.47205 -3.25102 -4.51889
168 1 1.39828 -1.17351 0.063792 -4.44646
169 1 3.77713 -3.70105 0.250109 -4.41434
170 1 3.88496 -0.745472 -3.09765 -4.47008
171 1 5.1121 -4.84764 -5.02011 -4.49645
172 1 4.80116 -2.30822 -1.46534 -4.36838
173 1 7.41245 -4.93983 -1.39376 -4.38332
174 1 7.525 -2.07881 -4.55882 -4.52847
175 1 6.10391 -3.54073 -3.1924 -4.35609
176 1 6.44816 -1.06769 0.102274 -4.4201
177 1 8.68559 -3.8026 0.252465 -4.44838
178 1 8.77658 -0.859003 -2.93942 -4.43935
179 1 9.7994 -4.86452 -4.56891 -4.4337
180 1 9.94133 -2.37539 -1.38733 -4.38809
181 1 12.42 -4.85024 -1.54015 -4.45286
182 1 12.2323 -2.24646 -4.69523 -4.44471
183 1 11.0572 -3.64811 -3.10214 -4.46507
184 1 11.2362 -1.44782 0.496104 -4.33799
185 1 14.3126 -4.1865 -0.423814 -4.44387
186 1 13.1659 -1.19401 -2.65412 -4.43365
187 1 15.088 -4.86861 -4.6132 -4.57247
188 1 14.9081 -2.23095 -1.47162 -4.50307
189 1 17.7547 -4.07895 -2.56811 -4.45829
190 1 17.2801 -1.75964 -5.04272 -4.69753
191 1 15.8734 -2.92496 -3.50751 -4.66088
192 1 16.0102 -1.18889 0.310666 -4.31018
193 1 18.7218 -2.20572 -1.30608 -3.82015
194 1 18.4991 -0.308902 -3.52889 -3.75082
195 1 -19.2012 -1.21111 -4.18158 -4.33425
196 1 -18.3014 0.282058 -0.575894 -4.34475
197 1 -17.3959 2.33911 -4.81699 -4.32753
198 1 -18.0435 0.559382 -3.05736 -4.29321
199 1 -17.6655 4.21389 0.887149 -4.33325
200 1 -16.302 1.32188 -0.136598 -4.44921
201 1 -16.0293 3.64806 -3.36802 -4.24394
202 1 -14.5217 -0.0973292 58.8885 -4.49471
203 1 -14.9944 2.03289 -2.09934 -4.46537
204 1 -12.1601 0.0834709 -1.93249 -4.40374
205 1 -12.5877 2.60612 58.9163 -4.51275
206 1 -13.5263 1.26793 -3.69881 -4.38195
207 1 -13.7459 3.51202 -0.871103 -4.3914
208 1 -11.2927 1.52087 -0.351274 -4.49008
209 1 -11.2117 3.869 -3.77917 -4.49808
210 1 -9.68038 0.236871 59.1762 -4.57018
211 1 -9.93341 2.7231 -2.02392 -4.45168
212 1 -7.30425 0.0974144 -1.98982 -4.48818
213 1 -7.34423 2.86381 -5.31175 -4.45986
214 1 -8.42801 1.55836 -3.56816 -4.49097
215 1 -8.65654 3.87839 -0.36747 -4.47375
216 1 -6.13131 1.14905 -0.23734 -4.48448
217 1 -6.01979 3.87033 -3.52562 -4.51349
218 1 -4.55305 0.408685 -5.06383 -4.45091
219 1 -4.92075 2.58215 -1.79155 -4.45047
220 1 -2.37265 0.363374 -1.59705 -4.48632
221 1 -2.09161 2.91902 -4.89481 -4.48511
222 1 -3.39835 1.68571 -3.32549 -4.44327
223 1 -3.81528 3.81213 -0.0808399 -4.50662
224 1 -0.997115 1.31843 -0.0356997 -4.45789
225 1 -0.811084 4.0728 -3.16759 -4.46094
226 1 0.104453 0.300608 59.6468 -4.4558
227 1 0.402251 2.89555 -1.48054 -4.46661
228 1 2.70539 0.375638 -1.33624 -4.49447
229 1 2.69012 2.70223 -4.79482 -4.53634
230 1 1.51153 1.59476 -3.10838 -4.45324
231 1 1.453 4.27768 0.130108 -4.50141
232 1 3.98425 1.65999 0.166002 -4.47836
233 1 3.89445 4.28242 -3.42588 -4.41354
234 1 5.28811 0.583689 -4.48528 -4.4753
235 1 4.8674 3.02387 -1.54571 -4.42059
236 1 7.49312 0.425892 -1.37174 -4.48582
237 1 7.95486 2.96585 -4.61309 -4.45412
238 1 6.56634 1.85225 -2.96633 -4.44212
239 1 6.18907 4.10564 0.190234 -4.49269
240 1 8.92786 1.35724 0.371174 -4.49618
241 1 9.07318 4.26134 -2.90189 -4.47862
242 1 10.0839 0.343757 -4.69677 -4.35314
243 1 9.9301 2.91965 -1.16715 -4.41154
244 1 12.0105 0.270433 -1.04027 -4.41037
245 1 12.2777 3.25431 -4.28836 -4.84321
246 1 11.0023 1.61312 -2.8236 -4.19774
247 1 11.0703 3.92625 0.579532 -4.39722
248 1 13.2339 1.43213 0.585475 -4.5074
249 1 13.4381 4.32756 -2.3397 -4.47195
250 1 14.3765 0.140023 -4.19695 -4.42518
251 1 14.5599 2.68922 -1.12508 -4.39848
252 1 17.3881 -0.158345 -1.34022 -4.95723
253 1 16.2135 2.78363 -3.92354 -4.35033
254 1 15.6538 1.07681 -2.47149 -4.30594
255 1 16.2023 4.15089 -0.0179838 -4.92518
256 1 18.7273 0.953294 0.338329 -4.26804
257 1 18.0581 4.18574 -4.1289 -4.33169
258 1 18.3205 1.84951 -4.61226 -4.35215
259 1 -17.2822 4.69546 -1.46812 -4.12558
260 1 -17.1721 7.96542 57.8026 -4.57365
261 1 -17.4607 6.2721 59.3789 -3.75586
262 1 -16.397 6.84739 -0.968071 -4.27789
263 1 -16.511 9.02227 -4.43217 -3.85819
264 1 -15.3637 5.08699 58.815 -5.35018
265 1 -15.176 7.8355 -2.77794 -4.57842
266 1 -12.627 5.24417 -2.25951 -4.43895
267 1 -12.5338 7.61643 58.7386 -4.55719
268 1 -13.8591 6.27878 -3.91449 -4.28087
269 1 -13.7125 9.09926 -1.34327 -4.47794
270 1 -11.1659 6.16363 -0.609997 -4.46931
271 1 -11.2663 8.95188 -4.02621 -4.52189
272 1 -9.92093 5.12227 58.8233 -4.52343
273 1 -10.2169 7.52174 -2.36357 -4.54935
274 1 -7.4018 5.1353 -2.00227 -4.46799
275 1 -7.50533 7.48331 58.9657 -4.57641
276 1 -8.73435 6.26905 -3.72605 -4.50295
277 1 -8.61075 8.55664 -0.932259 -4.45473
278 1 -6.04323 6.16741 -0.304311 -4.46603
279 1 -6.2117 8.77103 -3.89035 -4.50954
280 1 -4.70315 5.32864 59.358 -4.49079
281 1 -5.11301 7.56864 -2.01802 -4.43443
282 1 -2.31372 5.14502 -1.57481 -4.48528
283 1 -2.30577 7.72069 59.2915 -4.47301
284 1 -3.52874 6.50816 -3.2323 -4.49003
285 1 -3.66101 8.69758 -0.434718 -4.50506
286 1 -1.24784 6.54959 -0.0399208 -4.46057
287 1 -1.05735 8.95647 -3.39651 -4.50467
288 1 0.409174 5.49115 -4.77502 -4.4613
289 1 0.123165 7.78463 -1.68199 -4.46751
290 1 2.7078 5.33395 -1.55354 -4.2925
291 1 3.09936 8.11377 -4.72064 -4.20442
292 1 1.61059 6.70578 -3.22262 -4.47684
293 1 1.29976 9.08267 0.0025477 -4.4067
294 1 3.63242 6.73784 0.398293 -4.43
295 1 4.15106 9.17428 -2.61436 -4.55909
296 1 5.53689 5.59347 -4.63956 -4.38553
297 1 5.23919 7.77356 -0.954081 -4.58739
298 1 7.66031 5.38683 -1.31868 -4.59359
299 1 8.40963 8.63492 58.3223 -4.11788
300 1 6.57517 6.85206 -2.78563 -4.54697
301 1 6.49736 9.19717 0.416457 -4.4716
302 1 8.92511 6.64138 0.349624 -4.37671
303 1 8.14941 8.49573 -3.13828 -4.25956
304 1 10.1021 5.92017 -4.39552 -3.74411
305 1 9.79833 7.77653 -1.52729 -4.38703
306 1 11.9977 5.40921 -0.844018 -4.49445
307 1 12.4621 7.59458 57.9262 -4.57315
308 1 11.5389 6.85691 -2.67662 -4.44337
309 1 11.6182 8.9543 1.65582 -4.46498
310 1 13.5523 6.14202 0.734467 -4.6329
311 1 12.3518 9.89214 58.7616 -4.09794
312 1 13.7976 4.79233 58.7596 -4.37814
313 1 14.9202 7.40185 -0.62257 -4.33852
314 1 17.1842 5.07057 -1.95997 -3.70841
315 1 15.3989 6.48157 59.0021 -4.34417
316 1 15.1717 6.02193 -2.64997 -4.39682
317 1 16.0137 8.09687 1.60487 -4.24097
318 1 18.2985 5.27899 0.763699 -3.76973
319 1 -15.0115 12.9367 0.113005 -4.03769
320 1 -14.9911 10.5182 58.9777 -4.62862
321 1 -14.681 13.6593 -2.31019 -4.15704
322 1 -12.101 10.4059 -2.48657 -4.56571
323 1 -12.5939 12.7333 59.04 -4.68288
324 1 -13.8444 11.7454 -3.51059 -4.53607
325 1 -12.9833 14.09 -0.462122 -4.82421
326 1 -10.3052 11.2828 -1.11654 -4.36144
327 1 -11.4449 14.3751 -3.99284 -4.61602
328 1 -9.81483 10.1554 58.8518 -4.65064
329 1 -9.95081 12.8321 -2.81487 -4.48704
330 1 -7.62312 9.96088 -2.55425 -4.5319
331 1 -7.31906 12.8037 58.4094 -4.53503
332 1 -8.44071 11.5702 -4.12815 -4.52859
333 1 -8.46642 14.0609 -1.52614 -4.44262
334 1 -6.08554 11.0478 -1.17041 -4.49754
335 1 -5.6958 13.8805 -4.51531 -4.56563
336 1 -4.97276 10.1816 58.9346 -4.57252
337 1 -4.85405 12.6315 -2.72476 -4.4777
338 1 -2.63025 10.2834 -1.9879 -4.4623
339 1 -2.03097 12.656 58.6288 -4.57083
340 1 -3.41867 11.4437 -4.02426 -4.53008
341 1 -3.22039 13.7741 -1.41455 -4.4404
342 1 -1.1524 11.3546 -0.486555 -4.48683
343 1 -0.751144 13.8962 -4.03636 -4.54793
344 1 0.192646 10.0772 59.154 -4.48829
345 1 0.0287983 12.5293 -2.20933 -4.48791
346 1 2.53574 10.4864 -1.5099 -4.48368
347 1 2.6729 12.689 59.0365 -4.2521
348 1 1.59826 11.3894 -3.64222 -4.38809
349 1 1.54961 13.6613 -0.690323 -4.47718
350 1 3.78784 11.5591 0.200992 -4.48228
351 1 4.23107 13.8007 -3.63138 -4.25428
352 1 5.76913 10.8198 58.3985 -4.24501
353 1 5.05201 12.6392 -1.58671 -3.86067
354 1 7.45452 10.1892 -1.69135 -4.47715
355 1 7.41641 12.3201 57.5344 -4.56548
356 1 5.79043 10.8716 -3.07199 -4.37923
357 1 6.11443 14.1261 0.682024 -4.08173
358 1 8.60457 11.7842 1.26125 -4.62033
359 1 8.96665 13.8261 58.8016 -4.42678
360 1 10.2767 10.0904 57.4185 -4.80815
361 1 8.72112 12.2037 -1.15074 -4.35654
362 1 11.3712 9.43182 -0.705004 -4.98195
363 1 12.1868 11.5727 56.9401 -4.44086
364 1 10.8915 11.4994 -1.87262 -4.39036
365 1 10.1814 13.3543 1.58714 -4.5829
366 1 13.1962 10.5678 2.01511 -4.5769
367 1 12.5794 12.373 -0.483375 -3.60046
368 1 14.3982 10.1404 57.5552 -4.15471
369 1 13.5839 10.4152 -0.33789 -4.27264
370 1 13.2747 8.5518 -1.96797 -4.12368
371 1 -12.9839 15.1538 -2.53883 -3.93676
372 1 -11.7223 16.0286 -0.128698 -3.9488
373 1 -9.06347 15.8626 57.9622 -4.43187
374 1 -7.3401 15.1509 -3.40863 -4.54615
375 1 -7.83405 17.9217 58.0528 -4.46485
376 1 -8.59215 16.9743 -4.17829 -4.46685
377 1 -5.8333 16.217 -2.01308 -4.68309
378 1 -6.81788 18.5196 -4.15346 -3.60015
379 1 -4.65036 15.4075 58.3038 -4.53787
380 1 -4.74102 18.0769 -2.9397 -4.65884
381 1 -2.23907 15.3007 -2.87314 -4.48297
382 1 -1.77127 18.0348 58.4688 -4.29601
383 1 -3.35149 16.7939 -4.44266 -4.5131
384 1 -4.75948 19.0582 -0.703367 -3.67698
385 1 -1.57661 16.3524 -0.849646 -4.50178
386 1 -0.471913 19.1172 -3.77854 -4.28702
387 1 0.707411 15.1254 58.7957 -4.24233
388 1 0.0428322 17.4082 -2.16984 -4.55126
389 1 2.96239 15.0649 -1.92852 -4.26846
390 1 3.26086 18.0979 -3.31433 -4.25165
391 1 1.63136 16.3182 -3.37414 -4.81012
392 1 0.927843 18.6027 -0.302047 -4.7204
393 1 3.74062 16.268 0.0491571 -4.51231
394 1 2.9061 19.517 -1.32922 -4.32566
395 1 5.03417 14.5732 58.3078 -3.39967
396 1 4.82427 18.1746 -0.538775 -4.48017
397 1 8.53478 17.0513 -4.91452 -4.36895
398 1 9.53119 17.6739 57.2764 -4.33638
399 1 7.09867 15.2728 -5.16748 -4.53563
400 1 4.12092 18.8729 1.57213 -3.76751
401 1 7.31544 16.0677 1.45995 -4.56269
402 1 9.53755 14.5376 56.6439 -4.59621
403 1 10.6441 13.5391 -0.721033 -4.42989
404 1 10.3688 15.8051 58.4247 -4.52376
405 1 1.68602 20.0034 -3.35731 -4.21237
406 1 -11.9834 -15.4833 1.50483 -4.3971
407 1 -7.56159 -17.3263 1.33471 -3.7127
408 1 -8.82335 -15.8359 5.96329 -3.57284
409 1 -6.18894 -18.3053 6.61849 -4.10915
410 1 -6.02172 -16.3194 2.79559 -4.58493
411 1 -4.91573 -17.6271 4.55496 -4.44538
412 1 -2.66089 -17.9034 1.08353 -4.03994
413 1 -2.97485 -18.5762 3.38759 -3.94205
414 1 -3.50001 -16.0383 5.56334 -4.51898
415 1 -1.52337 -18.8776 5.51171 -4.09087
416 1 -1.37756 -16.6972 2.81034 -5.34311
417 1 0.842691 -19.8996 -1.29449 -4.19672
418 1 0.166773 -17.8074 4.32701 -4.1115
419 1 2.45281 -17.5578 1.00633 -4.42518
420 1 0.382982 -18.2063 2.06523 -4.04815
421 1 0.857806 -16.0642 5.74591 -4.39495
422 1 4.33643 -18.1381 6.55042 -4.48003
423 1 3.85955 -16.5165 2.76042 -4.45421
424 1 5.37856 -17.8112 4.21081 -4.37005
425 1 7.41884 -17.6737 0.607598 -4.36941
426 1 7.57556 -17.4916 3.18148 -4.15712
427 1 5.80795 -15.7261 5.16989 -4.72453
428 1 8.2047 -15.7402 1.72087 -4.50935
429 1 12.0819 -14.8439 7.7182 -4.09102
430 1 -16.992 -9.44201 2.97292 -4.26015
431 1 -15.8386 -11.5961 3.1737 -4.17335
432 1 -13.0568 -14.0312 3.09694 -4.39684
433 1 -12.6041 -12.1743 1.79739 -4.37441
434 1 -14.8091 -13.0833 1.6856 -4.33756
435 1 -14.2716 -11.1657 5.0127 -4.8583
436 1 -11.7063 -13.757 5.14696 -4.55881
437 1 -11.0959 -10.9021 3.0584 -4.56416
438 1 -9.70418 -15.0182 1.11737 -4.27329
439 1 -9.91793 -12.4548 4.36084 -4.57401
440 1 -7.58422 -15.058 4.11207 -4.61263
441 1 -7.23707 -12.4206 1.1587 -4.52565
442 1 -8.7091 -13.4992 2.61975 -4.49335
443 1 -8.93532 -11.147 6.03675 -4.50132
444 1 -6.46449 -13.7596 5.65216 -4.55283
445 1 -6.21767 -10.9303 2.86672 -4.44369
446 1 -4.93848 -14.8922 1.19386 -4.49003
447 1 -5.16764 -12.3535 4.31024 -4.50985
448 1 -2.11076 -14.816 4.23469 -4.2218
449 1 -2.23682 -12.4598 1.39062 -4.50421
450 1 -3.72491 -13.6632 2.80933 -4.56403
451 1 -4.01653 -11.3471 6.12263 -4.42305
452 1 -1.46877 -13.4208 6.12252 -4.51671
453 1 -1.32247 -11.2064 3.28079 -4.47239
454 1 -0.132842 -14.8908 1.54527 -4.22795
455 1 0.0638896 -12.3352 4.7201 -4.5094
456 1 2.50418 -15.1335 4.27839 -4.55952
457 1 2.5404 -12.2081 1.53521 -4.47125
458 1 1.17814 -13.6281 3.02642 -4.55101
459 1 1.52957 -11.4058 6.51609 -4.448
460 1 4.10509 -14.1696 5.60032 -4.36728
461 1 3.88388 -11.2724 3.33612 -4.48191
462 1 5.14791 -14.9433 1.33214 -4.45451
463 1 5.40128 -12.5104 4.7795 -4.42783
464 1 7.68857 -15.1184 3.98502 -4.43583
465 1 7.73688 -12.3852 1.49104 -4.41927
466 1 6.24908 -13.5895 2.84752 -4.55307
467 1 6.25623 -11.2391 6.65876 -4.39717
468 1 9.24441 -13.2346 7.08246 -3.50237
469 1 8.87577 -11.3233 3.43952 -4.2311
470 1 10.5393 -15.6862 1.93105 -3.61897
471 1 10.3198 -12.6859 5.02693 -4.89765
472 1 12.1948 -14.1582 4.98572 -4.10295
473 1 12.7298 -12.5668 1.39062 -4.16055
474 1 11.2326 -13.6166 2.92521 -4.27653
475 1 11.4092 -11.1327 6.37401 -4.36931
476 1 12.6703 -12.4897 7.78547 -4.63532
477 1 13.7741 -11.1572 2.94495 -4.4842
478 1 14.0866 -12.7439 4.85788 -3.56433
479 1 14.9784 -12.4564 7.10635 -4.49362
480 1 -17.1832 -7.65968 1.35998 -4.63094
481 1 -18.6001 -4.48354 7.30376 -4.16645
482 1 -16.4878 -8.83295 5.3789 -4.36608
483 1 -15.8642 -6.31742 2.76466 -4.66662
484 1 -14.9148 -9.91077 1.74187 -4.59003
485 1 -14.7552 -7.58677 4.43311 -4.62301
486 1 -12.3837 -9.70224 4.58493 -4.36859
487 1 -12.162 -7.47506 0.960819 -4.31766
488 1 -13.2961 -8.55627 2.79085 -4.52918
489 1 -13.4722 -6.3887 5.89615 -4.49294
490 1 -11.114 -8.62951 6.25819 -4.41622
491 1 -11.234 -6.09662 2.81865 -4.44525
492 1 -9.94066 -9.8754 1.29131 -4.39932
493 1 -9.98669 -7.37902 4.5563 -4.41717
494 1 -7.5309 -9.80948 4.52873 -4.41945
495 1 -7.32448 -7.18369 1.47056 -4.47903
496 1 -8.7704 -8.55338 2.86485 -4.51658
497 1 -8.63155 -6.09271 6.16574 -4.53689
498 1 -6.44798 -8.78675 6.40936 -4.46047
499 1 -6.10584 -6.15785 3.22464 -4.48361
500 1 -4.74737 -9.98143 1.29066 -4.51752
501 1 -5.08312 -7.58179 4.80221 -4.44398
502 1 -2.66661 -9.89034 4.71365 -4.57008
503 1 -2.31372 -7.36658 1.40389 -4.48968
504 1 -3.76404 -8.52408 3.01686 -4.39798
505 1 -3.78523 -6.35909 6.2804 -4.4495
506 1 -1.24534 -8.68175 6.15434 -4.463
507 1 -1.27413 -6.17321 3.18766 -4.48069
508 1 -0.0188709 -9.91765 1.76813 -4.40614
509 1 0.157579 -7.35796 4.74751 -4.49714
510 1 2.70332 -9.9717 4.98532 -4.47821
511 1 2.62393 -7.56292 1.68101 -4.46867
512 1 1.31803 -8.82667 3.34506 -4.49618
513 1 1.1728 -6.12573 6.63505 -4.44304
514 1 3.74937 -8.58275 6.69865 -4.47725
515 1 3.91609 -6.32476 3.37664 -4.45814
516 1 5.12929 -9.99234 1.70899 -4.43393
517 1 5.10039 -7.37738 5.12369 -4.44338
518 1 7.52727 -10.0737 4.98545 -4.48449
519 1 7.35832 -7.43631 1.74715 -4.4186
520 1 6.30814 -8.67111 3.45852 -4.41677
521 1 6.06605 -5.91785 6.81544 -4.51269
522 1 8.48672 -8.63236 6.52165 -4.548
523 1 8.5026 -6.09232 3.53173 -4.42676
524 1 10.0778 -10.034 1.90389 -4.52942
525 1 9.83442 -7.43318 5.03901 -4.52872
526 1 12.5899 -9.78035 4.59953 -4.46657
527 1 12.6446 -7.0681 1.89747 -4.42739
528 1 11.1884 -8.4035 3.27334 -4.56037
529 1 11.0802 -6.1298 6.60373 -4.59729
530 1 13.9569 -8.53724 6.18634 -4.45927
531 1 13.7419 -5.89772 3.6713 -4.42264
532 1 15.2134 -9.97955 1.18403 -3.91222
533 1 15.4791 -7.22126 4.75801 -4.59389
534 1 16.3265 -5.94668 1.48722 -4.52505
535 1 15.9309 -8.07762 2.56043 -3.60382
536 1 16.4505 -6.09343 6.61729 -3.85676
537 1 17.8684 -4.51967 2.51184 -4.40262
538 1 -17.3767 -5.06928 4.04139 -4.63919
539 1 -16.6318 -2.87421 0.954332 -4.30854
540 1 -18.3409 -3.93766 2.19048 -4.52052
541 1 -18.8418 -1.8341 3.36105 -3.90116
542 1 -15.9947 -3.75565 5.42124 -4.59579
543 1 -16.5277 -1.15868 2.72999 -5.29253
544 1 -14.6191 -5.37809 1.14428 -4.32888
545 1 -14.8748 -2.26866 4.04656 -4.26138
546 1 -12.5724 -4.79544 4.2707 -4.50403
547 1 -12.4594 -2.23328 1.0083 -4.486
548 1 -13.5774 -3.53769 2.55041 -4.40958
549 1 -13.802 -1.19783 5.99397 -4.44175
550 1 -11.0845 -3.66377 5.6783 -4.49751
551 1 -11.2212 -1.11533 2.6824 -4.43531
552 1 -9.85445 -4.781 1.30473 -4.49291
553 1 -9.81792 -2.32507 4.23711 -4.48525
554 1 -7.30922 -4.71882 4.65468 -4.46499
555 1 -7.38137 -2.15739 1.12186 -4.38975
556 1 -8.47969 -3.46352 2.80194 -4.43724
557 1 -8.53206 -1.31262 6.07202 -4.43215
558 1 -5.95505 -3.72146 6.37616 -4.4994
559 1 -6.23557 -1.22214 3.07439 -4.3974
560 1 -5.10325 -4.73509 1.53392 -4.35354
561 1 -4.86266 -2.30501 4.70028 -4.42873
562 1 -2.65478 -4.94525 4.74496 -4.47788
563 1 -2.41723 -2.46204 1.54268 -4.44492
564 1 -3.76741 -3.66671 3.11104 -4.48112
565 1 -3.77633 -1.08674 6.49393 -4.4014
566 1 -1.39947 -3.84456 6.37687 -4.45735
567 1 -1.20982 -1.11871 3.26311 -4.51439
568 1 -0.0640606 -5.04888 1.47217 -4.50773
569 1 -0.0900566 -2.53052 4.8567 -4.4782
570 1 2.56148 -5.03868 4.91997 -4.43279
571 1 2.41036 -2.41486 1.85346 -4.52407
572 1 1.22025 -3.90975 3.14669 -4.44271
573 1 1.1583 -1.14881 6.3102 -4.52577
574 1 3.63772 -3.56773 6.48526 -4.49664
575 1 3.74197 -1.03173 3.29383 -4.4891
576 1 5.10202 -4.888 1.74852 -4.43412
577 1 4.9482 -2.25613 5.04662 -4.48837
578 1 7.27728 -4.80286 5.21927 -4.47063
579 1 7.49083 -2.37336 1.8418 -4.4749
580 1 6.1574 -3.55858 3.47915 -4.43524
581 1 5.99368 -0.874496 6.64833 -4.44864
582 1 8.55396 -3.45114 6.71912 -4.52987
583 1 8.53024 -0.92187 3.33836 -4.51676
584 1 9.9166 -4.95087 1.87968 -4.38961
585 1 9.67982 -2.25961 5.0711 -4.47073
586 1 12.4232 -4.79377 5.26964 -4.5917
587 1 12.5629 -2.64887 2.20812 -4.21586
588 1 11.1048 -3.60311 3.65646 -4.54517
589 1 10.9346 -1.16631 6.80042 -4.50605
590 1 13.7976 -3.4799 6.64543 -4.54607
591 1 13.5469 -1.19917 3.72689 -4.55716
592 1 14.5824 -4.38624 2.04008 -4.88173
593 1 15.1102 -1.97972 5.18704 -4.46683
594 1 17.2074 -4.67734 4.76175 -3.55758
595 1 17.8742 -2.54555 0.932651 -4.41188
596 1 16.0385 -3.18532 3.39561 -4.40548
597 1 16.469 -0.268037 6.22463 -4.30887
598 1 18.6161 -0.93319 7.02524 -4.4306
599 1 18.6453 -0.641129 2.19612 -4.32799
600 1 -18.5791 -0.0535262 1.83604 -4.07697
601 1 -16.7888 0.50534 4.51813 -4.41177
602 1 -16.3684 2.55148 1.91046 -4.68605
603 1 -18.1914 1.90234 3.16633 -4.56916
604 1 -17.5542 3.54303 4.90115 -4.458
605 1 -15.6138 1.60082 6.41333 -4.51729
606 1 -15.7815 4.17412 3.49498 -4.49549
607 1 -15.0451 -0.161797 1.21707 -4.26563
608 1 -14.4137 2.58449 4.50857 -4.41126
609 1 -12.3783 -0.103925 4.48085 -4.39835
610 1 -12.733 2.55819 1.07454 -4.40686
611 1 -13.734 1.03394 2.73829 -4.34999
612 1 -13.1402 3.77085 6.07447 -4.50401
613 1 -11.2296 1.1695 6.1344 -4.45733
614 1 -11.3907 3.81693 2.67532 -4.43533
615 1 -9.89676 0.12741 1.06912 -4.47981
616 1 -10.2561 2.51488 4.35619 -4.44652
617 1 -7.53341 0.0821184 4.47364 -4.47078
618 1 -7.37409 2.44031 1.30077 -4.42258
619 1 -8.87451 1.26961 2.86738 -4.47528
620 1 -8.77082 3.64045 5.95713 -4.47525
621 1 -6.3195 1.25115 6.19916 -4.43678
622 1 -6.11087 3.61488 3.00932 -4.46547
623 1 -4.83133 -0.00934923 1.43505 -4.50139
624 1 -4.86083 2.58198 4.75696 -4.38677
625 1 -2.65663 0.156412 4.69721 -4.45681
626 1 -2.35395 2.57011 1.39153 -4.53853
627 1 -3.6522 1.36246 2.94101 -4.41816
628 1 -3.93216 3.83789 6.55543 -4.42731
629 1 -1.33821 1.39236 6.29473 -4.44357
630 1 -1.25793 3.91681 3.14459 -4.41934
631 1 0.128195 0.160661 1.70054 -4.47711
632 1 -0.0186306 2.80572 4.84952 -4.49864
633 1 2.42171 0.238216 4.86272 -4.54568
634 1 2.50762 2.77486 1.59954 -4.51595
635 1 1.19276 1.57369 3.2708 -4.48733
636 1 1.14554 4.20901 6.47264 -4.49302
637 1 3.56324 1.58042 6.36608 -4.46139
638 1 3.3682 4.22771 3.25467 -4.46753
639 1 5.02692 0.0628812 1.66926 -4.50974
640 1 4.73666 2.86359 4.76527 -4.47817
641 1 7.16837 0.338099 4.86241 -4.45012
642 1 7.29001 2.57513 1.57966 -4.51592
643 1 5.98606 1.56457 3.24371 -4.50897
644 1 6.08658 3.79673 6.52511 -4.51819
645 1 8.63346 1.39073 6.53319 -4.41612
646 1 8.18014 3.99139 3.3413 -4.36041
647 1 10.1098 0.0483236 1.96075 -4.49578
648 1 9.58789 2.79371 4.98088 -4.45487
649 1 12.3046 -0.0242081 5.32187 -4.5279
650 1 12.1213 2.63776 2.28165 -4.53247
651 1 10.9624 1.27956 3.77935 -4.5357
652 1 11.0063 3.5918 6.77945 -4.46626
653 1 13.6321 1.30378 6.89213 -4.42346
654 1 13.6043 3.93094 3.66062 -4.47229
655 1 14.621 0.0056817 1.94083 -4.54336
656 1 14.5728 2.30556 5.08147 -4.3428
657 1 17.3424 -0.00585814 4.05151 -4.57229
658 1 16.8601 2.13391 1.07597 -4.52427
659 1 15.8271 1.58145 3.12596 -4.5669
660 1 16.1572 3.55691 6.55616 -4.33827
661 1 18.7931 1.61008 4.75053 -4.39828
662 1 18.3512 3.49043 2.27692 -4.6189
663 1 19.7016 1.5103 2.49716 -4.23008
664 1 -18.0241 5.8136 5.022 -4.49503
665 1 -16.4198 7.60299 1.37202 -4.5643
666 1 -17.4056 5.88248 2.66316 -4.26468
667 1 -15.8933 6.36863 5.69222 -4.62878
668 1 -15.4332 9.71726 2.09246 -3.58983
669 1 -15.3728 4.89083 0.0723488 -4.8709
670 1 -14.3147 6.95547 3.98146 -4.35422
671 1 -12.6031 5.23196 4.24823 -4.5475
672 1 -12.7137 7.57753 0.39806 -4.49914
673 1 -14.4457 6.537 1.65108 -4.36
674 1 -13.2593 8.63745 5.34451 -4.36105
675 1 -11.0258 6.31374 5.58946 -4.45496
676 1 -11.275 8.35548 2.25467 -4.24498
677 1 -10.0574 5.07323 1.19106 -4.45404
678 1 -9.90185 7.65996 3.99121 -4.60431
679 1 -7.36608 5.11105 4.57947 -4.4041
680 1 -7.50341 7.50059 1.0344 -4.49172
681 1 -8.55387 6.20737 2.70752 -4.51678
682 1 -8.82043 9.36307 5.18446 -4.11921
683 1 -6.51587 6.632 6.31272 -4.44028
684 1 -5.84354 8.47176 2.38179 -4.40791
685 1 -4.95854 5.13341 1.58938 -4.45764
686 1 -5.03468 7.69505 4.61437 -4.27005
687 1 -2.55995 4.98722 4.81813 -4.40233
688 1 -2.51852 7.83237 1.48271 -4.34262
689 1 -3.63958 6.35599 3.12547 -4.43514
690 1 -4.29455 9.19301 6.31202 -4.35018
691 1 -1.67744 6.42557 6.50264 -4.53968
692 1 -1.49708 8.86728 3.37273 -4.37282
693 1 -0.162303 5.36952 1.57089 -4.43033
694 1 -0.13727 7.58244 4.97207 -4.44669
695 1 2.3602 5.4699 4.94302 -4.40807
696 1 2.1765 7.95657 1.96568 -4.44691
697 1 1.02148 6.48403 3.35823 -4.4269
698 1 0.915543 8.92672 6.69152 -4.4851
699 1 3.65403 6.59077 6.54085 -4.55899
700 1 3.48828 9.11286 3.52993 -4.4718
701 1 4.78813 5.21512 1.73838 -4.53494
702 1 4.99239 7.91719 5.08736 -4.48661
703 1 7.33543 5.28003 5.15992 -4.43037
704 1 7.33127 7.66262 1.9817 -4.42932
705 1 5.9634 6.37814 3.48246 -4.46656
706 1 6.15392 9.05172 6.83667 -4.44927
707 1 8.66135 6.51269 6.90704 -4.40863
708 1 8.34379 8.76937 3.83342 -4.62775
709 1 9.5755 5.07811 1.98265 -4.43382
710 1 9.96696 7.71338 5.25557 -4.38916
711 1 12.2554 4.95307 5.30145 -4.45559
712 1 12.5131 7.1065 2.62255 -4.43514
713 1 10.7606 5.95142 3.86866 -4.5784
714 1 11.656 9.21693 8.02346 -4.45479
715 1 13.1979 6.29781 7.09567 -4.26146
716 1 13.4157 8.15787 4.5037 -4.23225
717 1 15.0063 4.73038 1.88353 -4.3369
718 1 14.9505 8.03967 6.32658 -4.70589
719 1 17.5575 3.79687 4.55068 -4.29758
720 1 18.0467 7.00528 2.30754 -4.42555
721 1 15.8596 6.40211 3.26611 -4.4589
722 1 16.7643 9.2635 7.48869 -4.11948
723 1 17.8942 6.15703 4.62686 -4.22332
724 1 -14.6052 11.1717 3.85715 -4.34479
725 1 -14.7549 10.7476 0.139163 -4.61029
726 1 -13.9347 12.8885 2.35105 -4.48993
727 1 -12.4174 10.1523 3.52838 -4.97821
728 1 -11.2775 12.7137 0.373025 -4.18449
729 1 -12.6988 11.1526 1.34082 -4.55311
730 1 -12.2595 13.9217 3.63153 -4.09194
731 1 -10.6381 10.7888 4.8672 -4.42731
732 1 -10.4286 14.1388 2.0895 -5.36047
733 1 -10.0677 9.60391 0.536327 -4.48876
734 1 -9.65875 12.0047 3.03014 -4.40904
735 1 -7.23506 9.86746 3.57005 -4.58093
736 1 -7.57186 12.4767 -0.0300439 -4.53007
737 1 -8.24118 10.8338 1.59066 -4.54741
738 1 -8.10793 12.855 4.52259 -4.50972
739 1 -6.11171 11.6482 4.72598 -4.43753