ITEM: TIMESTEP
4000
ITEM: NUMBER OF ATOMS
4050
ITEM: BOX BOUNDS ss ss pp
-2.1449267896283210e+01 2.1282361328650182e+01
-2.2004633717978948e+01 2.1579312603713348e+01
-5.4310000000000011e-02 5.4364310000000003e+01
ITEM: ATOMS id type x y z c_peratom
1 1 -12.8017 -16.1856 1.83587 -3.83313
2 1 -7.87298 -18.5674 0.610759 -4.65317
3 1 -9.63202 -17.7652 3.6897 -4.49641
4 1 -7.86029 -19.3221 2.92662 -4.2929
5 1 -6.4433 -16.9136 1.48221 -4.67122
6 1 -5.59444 -18.5205 2.87153 -4.60857
7 1 -2.74359 -19.0215 54.4503 -4.6684
8 1 -4.93258 -19.5122 0.8996 -3.83796
9 1 -3.87963 -17.6357 4.16554 -4.3977
10 1 -0.650009 -20.1473 4.70523 -4.1576
11 1 -1.50887 -17.3865 1.12527 -4.43106
12 1 -0.177151 -20.659 1.00902 -3.42104
13 1 -0.493415 -18.9287 2.59768 -4.9126
14 1 2.89801 -18.6297 54.5119 -4.36058
15 1 1.77213 -19.6336 1.95231 -4.79167
16 1 0.927924 -17.2281 3.76754 -4.41001
17 1 3.42646 -19.885 3.62174 -4.29272
18 1 3.98973 -17.0739 1.44616 -4.6542
19 1 5.13275 -18.8089 2.3409 -4.43222
20 1 7.96082 -18.43 0.974041 -3.5246
21 1 9.60237 -18.7446 2.57041 -4.23768
22 1 6.34911 -17.2401 3.65237 -4.4692
23 1 9.4461 -16.6681 1.49518 -5.05438
24 1 11.2757 -17.0576 3.08577 -4.24122
25 1 -15.7656 -13.0211 2.00151 -3.67668
26 1 -16.2152 -14.1069 4.06346 -4.22057
27 1 -14.6448 -15.7652 3.27643 -4.46766
28 1 -13.5767 -13.5561 54.2268 -4.45884
29 1 -14.9361 -15.0656 1.03706 -4.33424
30 1 -14.8069 -12.057 4.07386 -4.78486
31 1 -12.2576 -14.9803 3.83939 -5.12692
32 1 -12.339 -12.2039 1.31649 -4.56648
33 1 -11.2314 -15.9136 0.0636716 -4.40724
34 1 -10.9039 -13.4098 2.72133 -4.34731
35 1 -8.26987 -16.0784 2.692 -4.55926
36 1 -8.16487 -13.3862 54.4595 -4.55483
37 1 -9.6442 -14.6829 1.23514 -4.64327
38 1 -9.45765 -12.026 4.00679 -4.58885
39 1 -6.83326 -14.9805 4.2641 -4.5828
40 1 -6.85909 -12.2287 1.74064 -4.54323
41 1 -5.1449 -16.0787 54.2011 -4.45047
42 1 -5.5365 -13.7941 2.80149 -4.52261
43 1 -2.74285 -16.0922 2.79836 -4.60516
44 1 -2.59145 -13.4974 54.4411 -4.57827
45 1 -4.06046 -14.7842 1.34807 -4.55947
46 1 -4.20703 -12.1753 3.97708 -4.5957
47 1 -1.43476 -14.6119 4.01784 -4.58121
48 1 -1.29635 -11.9197 1.05223 -4.57226
49 1 0.0918199 -16.2134 54.3282 -4.5789
50 1 -0.193996 -13.2846 2.5388 -4.56734
51 1 2.38372 -15.8259 2.65312 -4.53754
52 1 2.75772 -13.4201 -0.186129 -4.53644
53 1 1.18266 -14.5459 1.16331 -4.60324
54 1 1.42654 -12.0002 3.82556 -4.53391
55 1 3.87284 -14.7308 4.03242 -4.58173
56 1 3.92182 -11.949 1.13602 -4.5714
57 1 5.24708 -15.9025 -0.0644348 -4.58583
58 1 5.1306 -13.1079 2.6572 -4.56384
59 1 7.74713 -15.5369 2.77584 -4.48367
60 1 8.17185 -13.0739 54.4278 -4.57696
61 1 6.59046 -14.3569 1.21565 -4.65512
62 1 6.54429 -12.0007 4.18283 -4.57156
63 1 9.22269 -14.388 4.16067 -4.61352
64 1 9.32122 -11.6543 1.49657 -4.57847
65 1 10.9489 -16.041 54.043 -4.28604
66 1 10.5967 -12.9713 2.99789 -4.52867
67 1 13.0704 -15.6795 1.99215 -4.41436
68 1 12.9156 -12.5514 0.5702 -4.14879
69 1 11.4735 -14.2222 1.23484 -4.63027
70 1 12.0139 -11.9028 4.48142 -4.61093
71 1 14.1837 -14.0014 3.10104 -4.05276
72 1 14.7359 -11.9322 2.09166 -5.31113
73 1 16.27 -13.7011 1.98511 -4.09912
74 1 17.0484 -11.683 2.95964 -4.20926
75 1 -18.71 -7.96873 53.8997 -3.71544
76 1 -19.5234 -5.552 4.19198 -3.56632
77 1 -17.61 -9.43279 4.32705 -3.71082
78 1 -17.7356 -6.63305 1.13005 -4.60957
79 1 -16.1568 -11.0662 54.1952 -3.8459
80 1 -16.5048 -8.10522 2.63099 -4.59116
81 1 -13.6064 -10.7001 2.56002 -4.41925
82 1 -13.6317 -8.01037 54.4804 -4.64617
83 1 -15.1828 -9.41739 1.20775 -4.65046
84 1 -15.0669 -6.76633 4.06334 -4.56785
85 1 -12.3263 -9.30544 4.10209 -4.5793
86 1 -12.3981 -6.60594 1.42666 -4.58011
87 1 -11.0032 -10.9079 54.4081 -4.59585
88 1 -10.9324 -8.09074 2.64364 -4.60867
89 1 -8.34246 -10.619 2.62196 -4.56001
90 1 -8.06969 -8.14355 -0.00706093 -4.61891
91 1 -9.67403 -9.41543 1.17473 -4.5767
92 1 -9.4409 -6.7721 4.09328 -4.55457
93 1 -6.85532 -9.36552 3.98659 -4.61771
94 1 -6.87518 -6.66075 1.46401 -4.61852
95 1 -5.61847 -11.0089 54.4671 -4.56698
96 1 -5.38411 -8.15113 2.60294 -4.5939
97 1 -2.79762 -10.9468 2.62395 -4.5865
98 1 -2.89371 -8.0369 54.4918 -4.58241
99 1 -4.22073 -9.62093 1.25514 -4.60113
100 1 -4.03857 -6.65981 4.01274 -4.58426
101 1 -1.37195 -9.52449 3.95124 -4.60265
102 1 -1.5229 -6.60172 1.3624 -4.59916
103 1 -0.0101145 -10.5855 -0.402722 -4.5744
104 1 -0.0921962 -8.18549 2.5795 -4.57501
105 1 2.49755 -10.5414 2.33647 -4.60961
106 1 2.68033 -7.71078 -0.280217 -4.61262
107 1 1.2233 -9.18433 0.967563 -4.59151
108 1 1.22626 -6.83431 4.00293 -4.59715
109 1 3.89075 -9.15361 3.7297 -4.55015
110 1 4.03481 -6.35237 1.10797 -4.60481
111 1 5.412 -10.5275 54.3515 -4.60786
112 1 5.29785 -7.86771 2.33241 -4.57358
113 1 7.84725 -10.57 2.86897 -4.56256
114 1 8.12744 -7.79605 -0.267859 -4.59641
115 1 6.88756 -9.19637 1.20684 -4.57475
116 1 6.69149 -6.55906 3.91148 -4.59738
117 1 9.43022 -9.20054 4.14943 -4.60404
118 1 9.32938 -6.48335 1.31531 -4.60228
119 1 10.5725 -10.3544 -0.00232659 -4.5955
120 1 10.7675 -7.73329 2.79633 -4.56015
121 1 13.1797 -10.4423 2.98068 -4.35794
122 1 13.5534 -7.9978 54.3433 -4.57008
123 1 12.0722 -9.08611 1.36311 -4.60752
124 1 12.4272 -6.7722 4.09109 -4.58053
125 1 14.646 -9.09583 4.23599 -4.67344
126 1 14.8948 -6.70737 1.40781 -4.66336
127 1 15.713 -11.1661 0.0372767 -4.26272
128 1 16.2332 -8.06517 2.83351 -4.55469
129 1 18.6893 -8.70081 0.0349721 -3.51354
130 1 17.0311 -9.86173 1.36427 -4.56054
131 1 17.6971 -6.35305 3.63975 -4.60678
132 1 19.378 -6.54923 0.485573 -3.51545
133 1 -18.6642 -4.72101 2.14975 -4.44635
134 1 -18.9426 -2.5444 54.1505 -5.07766
135 1 -20.4094 -3.57367 1.15123 -3.44515
136 1 -20.4505 -0.69797 5.13972 -3.76298
137 1 -17.6267 -3.994 4.25672 -4.95929
138 1 -17.78 -1.06168 1.31563 -4.36529
139 1 -16.2215 -5.23595 54.3894 -4.57739
140 1 -16.4091 -2.48359 2.84877 -4.31635
141 1 -13.8304 -5.30782 2.79522 -4.57353
142 1 -13.7075 -2.64448 -0.072238 -4.54058
143 1 -14.9027 -3.77278 1.44879 -4.50917
144 1 -15.0591 -1.28948 4.33027 -4.60059
145 1 -12.5227 -3.9954 4.25944 -4.57491
146 1 -12.4024 -1.40667 1.51365 -4.62014
147 1 -11.1254 -5.46296 -0.0814256 -4.58619
148 1 -11.063 -2.80245 2.82175 -4.59903
149 1 -8.2769 -5.28173 2.72332 -4.60014
150 1 -8.14441 -2.91885 54.6602 -4.55116
151 1 -9.8526 -4.08151 1.34154 -4.5568
152 1 -9.50957 -1.39525 3.86603 -4.57555
153 1 -6.77133 -4.00407 3.99379 -4.60713
154 1 -6.81258 -1.35807 1.29452 -4.59578
155 1 -5.4638 -5.45165 54.4388 -4.64185
156 1 -5.39578 -2.64999 2.70095 -4.60842
157 1 -2.74763 -5.18799 2.80534 -4.61749
158 1 -2.92263 -2.54306 54.3587 -4.57054
159 1 -4.14878 -4.0206 1.35842 -4.6139
160 1 -4.02044 -1.15426 4.03705 -4.58996
161 1 -1.22384 -3.89813 4.0547 -4.60694
162 1 -1.37019 -1.20756 1.42852 -4.57175
163 1 -0.351465 -5.05829 54.4003 -4.53998
164 1 0.0867706 -2.59764 2.61428 -4.61832
165 1 2.46875 -5.32943 2.62009 -4.58487
166 1 2.75362 -2.56601 54.1794 -4.52479
167 1 1.35565 -3.93735 1.1078 -4.59977
168 1 1.3399 -1.13008 4.0302 -4.62625
169 1 3.86152 -3.91732 3.88345 -4.61308
170 1 4.03183 -1.18784 1.25321 -4.60373
171 1 5.27646 -5.00101 -0.31968 -4.56521
172 1 5.31767 -2.529 2.63152 -4.61971
173 1 8.13534 -5.01968 2.71785 -4.59341
174 1 7.93508 -2.48616 54.1848 -4.54633
175 1 6.67808 -3.85939 1.15965 -4.58815
176 1 6.85727 -1.29547 3.99895 -4.58057
177 1 9.63588 -3.77558 4.02103 -4.58647
178 1 9.38033 -1.09818 1.05806 -4.61372
179 1 10.6057 -5.12828 54.3985 -4.59447
180 1 10.8517 -2.3982 2.45979 -4.59193
181 1 13.5649 -5.27603 2.70642 -4.57392
182 1 13.4829 -2.65341 54.3411 -4.5923
183 1 12.1125 -3.9875 1.39017 -4.60153
184 1 12.0342 -1.10482 4.08018 -4.59236
185 1 14.9914 -3.88533 4.03186 -4.63858
186 1 14.6693 -1.35453 1.48667 -4.60075
187 1 16.4243 -5.64609 54.3649 -4.41969
188 1 16.3 -2.45117 2.66515 -4.56424
189 1 19.0241 -4.95823 2.23857 -4.59828
190 1 18.8916 -2.45083 54.1285 -4.7232
191 1 17.4291 -3.85302 1.05127 -4.62596
192 1 17.4467 -0.956843 4.14657 -4.63
193 1 19.762 -2.63952 2.86916 -3.62293
194 1 20.0122 -0.959618 1.23123 -4.1681
195 1 -20.9634 -1.39028 0.541019 -4.44474
196 1 -19.9865 0.887173 3.41063 -3.71195
197 1 -19.0126 2.58644 54.3117 -4.5076
198 1 -19.5879 0.469907 1.08035 -4.50872
199 1 -19.7811 4.89505 4.43939 -3.87654
200 1 -17.8275 1.4552 4.09302 -4.54625
201 1 -17.4899 3.75977 1.30979 -4.62548
202 1 -16.5157 0.261661 54.3783 -4.59996
203 1 -16.1875 2.54402 2.7216 -4.53766
204 1 -13.6808 0.144381 2.90126 -4.54561
205 1 -13.4848 2.70509 -0.143619 -4.56784
206 1 -14.7928 1.37472 1.23674 -4.56448
207 1 -15.0302 4.17076 3.93109 -4.57329
208 1 -12.1696 1.42414 4.38733 -4.58021
209 1 -12.0837 3.89375 1.25825 -4.55517
210 1 -10.8822 -0.263641 0.0452886 -4.60643
211 1 -10.7908 2.62988 2.84209 -4.6081
212 1 -8.05107 0.0608358 2.61546 -4.5812
213 1 -8.25794 2.70972 0.0739844 -4.58889
214 1 -9.53192 1.25563 1.342 -4.61137
215 1 -9.32301 3.89067 4.2315 -4.61265
216 1 -6.73722 1.62122 3.85421 -4.56846
217 1 -6.68076 4.01782 1.22389 -4.56786
218 1 -5.59337 0.173597 -0.0180902 -4.59464
219 1 -5.17683 2.97021 2.67398 -4.60582
220 1 -2.67297 0.300031 2.81893 -4.59694
221 1 -2.70564 2.91059 54.3853 -4.61873
222 1 -4.00975 1.41948 1.25694 -4.6077
223 1 -3.79701 4.10103 4.15973 -4.57794
224 1 -1.19929 1.65616 4.0341 -4.51787
225 1 -1.15919 4.21678 1.296 -4.60629
226 1 -0.175473 0.299612 54.4886 -4.60759
227 1 0.0971614 2.89873 2.7103 -4.53491
228 1 2.77165 0.170965 2.6979 -4.61519
229 1 2.68101 2.95273 -0.190697 -4.6129
230 1 1.36742 1.56247 1.29196 -4.6078
231 1 1.5549 4.33072 3.81423 -4.5859
232 1 4.13073 1.3708 4.21792 -4.59811
233 1 4.17136 4.16958 1.24643 -4.58577
234 1 5.516 0.287157 54.4863 -4.58098
235 1 5.37066 2.85233 2.71641 -4.5783
236 1 8.1796 0.185451 2.67294 -4.62168
237 1 8.12538 2.91008 54.3931 -4.58973
238 1 6.82964 1.65969 1.3591 -4.56734
239 1 6.80594 4.36202 3.95956 -4.58762
240 1 9.43549 1.57242 4.06535 -4.59912
241 1 9.50734 4.34164 1.17436 -4.5539
242 1 10.8424 0.220735 -0.192355 -4.63454
243 1 10.6829 2.88644 2.61367 -4.61661
244 1 13.3688 0.196446 2.79802 -4.56087
245 1 13.3928 2.87989 54.4602 -4.59004
246 1 12.0887 1.50547 1.38212 -4.59288
247 1 12.1774 4.11865 3.89873 -4.56182
248 1 14.737 1.50317 4.08468 -4.59221
249 1 14.8514 4.20361 1.24327 -4.62417
250 1 16.1317 0.0835611 0.315363 -4.59764
251 1 16.0524 2.94025 2.70974 -4.41354
252 1 18.9396 0.335406 2.93214 -4.55893
253 1 18.3868 2.43813 53.927 -4.3927
254 1 17.5809 1.54178 1.44152 -4.55328
255 1 17.5405 4.54214 3.90173 -4.84576
256 1 20.3733 1.4495 4.52465 -4.37375
257 1 20.2305 3.63642 0.306952 -4.34132
258 1 20.468 1.31102 53.9304 -3.78641
259 1 -18.8532 5.47918 2.19815 -4.44875
260 1 -18.6402 8.22344 53.5001 -4.63481
261 1 -19.7986 6.57724 0.310242 -3.74286
262 1 -17.5948 6.85511 3.81816 -4.68898
263 1 -17.5038 9.5037 0.785351 -3.53354
264 1 -16.141 5.13165 0.0393913 -4.51974
265 1 -16.2347 8.32362 2.39139 -4.49841
266 1 -13.4309 5.27786 2.66917 -4.60102
267 1 -13.6341 7.99366 -0.0345392 -4.60705
268 1 -14.9262 6.58216 1.38075 -4.60465
269 1 -14.8736 9.39031 4.0767 -4.48415
270 1 -12.3258 6.56293 4.33358 -4.56746
271 1 -12.3512 9.26417 1.43179 -4.57267
272 1 -10.7177 5.32014 -0.0726198 -4.62524
273 1 -10.9352 7.80297 2.85901 -4.5496
274 1 -8.01792 5.24861 2.77471 -4.64558
275 1 -8.06187 8.08379 0.043608 -4.61588
276 1 -9.40757 6.61354 1.36475 -4.60373
277 1 -9.48231 9.24417 3.84208 -4.54688
278 1 -6.78641 6.75769 4.16882 -4.5738
279 1 -6.7484 9.38907 1.48338 -4.65404
280 1 -5.30847 5.51594 54.4257 -4.5834
281 1 -5.33762 7.95645 2.70618 -4.59351
282 1 -2.52528 5.53534 2.67067 -4.60998
283 1 -2.5364 8.35587 54.4994 -4.58545
284 1 -3.88901 6.92441 1.2145 -4.54191
285 1 -4.04799 9.55995 3.98957 -4.62958
286 1 -1.24094 6.77709 4.07784 -4.56405
287 1 -1.24418 9.65766 1.45644 -4.57805
288 1 0.197761 5.72368 54.4594 -4.62347
289 1 0.0115935 8.0983 2.71733 -4.55778
290 1 2.9662 5.72207 2.50467 -4.61206
291 1 2.90284 8.4557 -0.203769 -4.5906
292 1 1.54751 7.188 1.25206 -4.587
293 1 1.55861 9.53372 3.84193 -4.57966
294 1 4.21081 7.02015 3.97556 -4.63166
295 1 4.02604 9.83426 1.33304 -4.62393
296 1 5.48827 5.72783 -0.0167496 -4.59255
297 1 5.45728 8.45703 2.68508 -4.61207
298 1 8.1266 5.63987 2.57183 -4.62583
299 1 8.13859 8.47124 -0.133247 -4.58486
300 1 6.79144 7.11352 1.27507 -4.59692
301 1 6.89055 9.6663 4.12146 -4.63102
302 1 9.62397 6.93279 3.91216 -4.57902
303 1 9.54114 9.79679 1.0802 -4.54169
304 1 11.0097 5.82313 -0.25619 -4.5284
305 1 10.669 8.33723 2.46902 -4.54126
306 1 13.4093 5.5191 2.60032 -4.55338
307 1 13.5178 8.35244 -0.355037 -4.34765
308 1 12.373 7.04584 1.17455 -4.58613
309 1 12.1695 9.53209 3.82931 -4.41964
310 1 14.7043 7.1302 3.73655 -4.44649
311 1 15.0528 9.38778 1.18202 -4.68559
312 1 16.2617 5.47577 -0.142282 -4.45405
313 1 16.5704 8.1384 2.60681 -4.62478
314 1 19.1993 4.83127 2.18621 -4.03469
315 1 18.9823 7.29771 53.8247 -3.75867
316 1 17.8085 6.61031 1.35989 -4.50256
317 1 17.4143 8.71592 4.7622 -3.99975
318 1 19.7057 5.66871 4.46932 -4.17137
319 1 -16.5124 13.5132 4.87863 -4.24149
320 1 -16.1436 11.0381 -0.220746 -4.62706
321 1 -15.9412 13.9938 2.60394 -4.21159
322 1 -13.5364 10.7895 2.87232 -4.56566
323 1 -13.4613 13.4863 -0.0727596 -4.54457
324 1 -14.8214 12.2412 1.46906 -4.62093
325 1 -14.2873 14.3524 4.39154 -4.83693
326 1 -11.9086 12.026 3.84396 -4.50977
327 1 -12.4323 15.1518 1.31145 -5.00155
328 1 -10.9221 10.5555 -0.12236 -4.57714
329 1 -10.9008 13.58 2.32066 -4.39722
330 1 -8.2444 10.7956 2.69966 -4.54148
331 1 -8.16598 13.7365 54.3716 -4.61111
332 1 -9.47523 12.0546 1.09562 -4.55349
333 1 -9.6951 14.6584 4.01888 -4.5311
334 1 -6.77872 12.0381 4.01442 -4.55275
335 1 -6.64933 15.0195 1.3643 -4.57343
336 1 -5.42237 10.7911 0.0146239 -4.57852
337 1 -5.52762 13.5789 2.79583 -4.567
338 1 -2.7425 11.0421 2.78148 -4.59955
339 1 -2.62052 13.4785 0.0703206 -4.57953
340 1 -4.24818 12.3385 1.32996 -4.59305
341 1 -4.18723 14.873 4.27394 -4.59758
342 1 -1.40368 12.3738 4.28465 -4.56867
343 1 -1.37331 14.9031 1.42863 -4.5761
344 1 0.193116 11.0447 54.4964 -4.59058
345 1 -0.0447206 13.7642 2.91164 -4.61924
346 1 2.80304 11.2059 2.73805 -4.57219
347 1 2.6424 13.9544 0.0613286 -4.63505
348 1 1.36826 12.5877 1.52026 -4.59951
349 1 1.41928 15.0147 4.2103 -4.53723
350 1 4.31015 12.3212 4.06938 -4.58564
351 1 4.11811 15.3491 1.27609 -4.51459
352 1 5.49543 11.3996 54.6558 -4.54873
353 1 5.48451 14.0263 2.91185 -4.45954
354 1 8.4245 11.0626 2.82468 -4.56909
355 1 8.17328 13.7291 54.4706 -4.36546
356 1 6.98672 12.5872 1.71389 -4.5947
357 1 6.6648 15.1688 4.67534 -4.52719
358 1 9.66723 12.482 4.22303 -4.41655
359 1 9.40416 15.3452 1.38091 -4.82023
360 1 11.0149 11.1594 54.3082 -4.40089
361 1 10.8682 13.8901 2.72383 -4.72209
362 1 13.6914 10.89 2.44673 -4.7438
363 1 13.4302 13.4329 53.7818 -4.12523
364 1 12.3064 12.5444 1.32572 -4.71128
365 1 11.7447 14.9818 4.59506 -4.26392
366 1 14.4885 11.7041 4.52797 -4.21193
367 1 14.1989 13.9819 1.55322 -4.2549
368 1 16.2875 10.4568 53.9044 -4.01149
369 1 15.5996 12.3559 2.55635 -4.33852
370 1 16.9967 10.5586 1.80946 -4.08346
371 1 -14.4369 15.8748 2.53164 -4.04531
372 1 -13.467 16.6978 4.69251 -4.19915
373 1 -10.5487 16.1491 0.101476 -4.29046
374 1 -8.23424 16.0013 2.86881 -4.67703
375 1 -8.30529 18.7557 0.342408 -3.57048
376 1 -9.64816 17.5521 1.82155 -4.47179
377 1 -6.87724 17.1416 4.36278 -4.65687
378 1 -8.06217 19.4181 2.53327 -4.28495
379 1 -5.44081 16.5137 -0.0284944 -4.61491
380 1 -5.90534 18.7031 2.92946 -4.66351
381 1 -2.89436 16.0917 2.70217 -4.60701
382 1 -2.49157 18.8798 0.114438 -4.57434
383 1 -4.17743 17.7321 1.52677 -4.46442
384 1 -5.12226 19.8124 4.79872 -3.55123
385 1 -1.63876 17.6322 4.04973 -4.41424
386 1 -0.751692 20.2169 1.12131 -3.69784
387 1 -0.000859933 16.3027 0.0107045 -4.61406
388 1 -0.0776222 18.7925 2.7481 -4.70718
389 1 2.52619 16.3525 2.58976 -4.58006
390 1 2.64884 19.3628 0.173367 -4.70785
391 1 1.30073 17.792 1.25825 -4.4315
392 1 1.22323 20.2309 4.05345 -4.59574
393 1 3.7829 17.5099 4.13864 -4.62684
394 1 2.77237 20.528 2.25642 -4.13854
395 1 5.08451 16.7168 -0.480457 -4.33439
396 1 4.67737 19.2785 2.96447 -4.53217
397 1 7.76217 16.8567 1.88901 -4.42502
398 1 9.0972 18.4805 1.01808 -4.35253
399 1 5.87984 18.0955 1.24266 -4.45266
400 1 5.70262 20.2617 4.86056 -3.57796
401 1 8.25826 16.8392 4.20816 -4.59681
402 1 10.2654 16.0408 53.6771 -4.27606
403 1 12.5873 15.6194 2.3721 -4.19714
404 1 11.0967 17.1059 1.07794 -4.24056
405 1 1.26506 21.3837 0.582792 -4.25928
406 1 -13.3488 -16.7487 5.10009 -4.0137
407 1 -8.2547 -18.785 5.27962 -3.54473
408 1 -9.83389 -17.4363 9.04908 -3.72637
409 1 -6.44519 -19.7103 10.5249 -4.34321
410 1 -6.79593 -17.6839 6.8789 -4.60363
411 1 -5.52425 -18.9142 8.53756 -4.56486
412 1 -2.51731 -19.1588 5.69205 -4.44835
413 1 -3.3653 -19.7254 7.86953 -3.62675
414 1 -4.05187 -17.3753 9.65389 -4.67671
415 1 -1.46759 -20.3012 9.40705 -4.52328
416 1 -1.33137 -17.5126 6.86582 -4.58758
417 1 1.37884 -21.2577 3.90413 -3.98573
418 1 0.126854 -19.24 8.03173 -4.41882
419 1 2.44165 -18.3303 5.16957 -4.67513
420 1 1.36196 -20.1796 6.08349 -4.41126
421 1 1.39811 -17.6515 9.43495 -4.50697
422 1 5.20418 -19.9394 10.1596 -3.89026
423 1 4.15958 -17.6175 6.57425 -4.48937
424 1 5.54085 -18.8868 8.04476 -4.60149
425 1 8.09021 -18.4426 4.42342 -4.4489
426 1 7.47344 -19.3595 6.64437 -3.44102
427 1 6.67143 -17.3671 9.3071 -4.72062
428 1 9.30361 -17.879 6.35478 -4.43313
429 1 13.147 -16.925 10.2874 -4.42022
430 1 -17.8092 -11.1763 7.40929 -3.60965
431 1 -16.1679 -12.7191 7.95974 -3.89073
432 1 -13.6238 -15.4413 7.00663 -4.22666
433 1 -13.4421 -13.6057 5.37555 -4.65399
434 1 -15.4916 -14.1754 6.39856 -4.26162
435 1 -14.6099 -11.8936 9.40985 -4.73189
436 1 -12.1883 -14.5294 8.91151 -4.46717
437 1 -12.0215 -12.0621 6.69046 -4.50113
438 1 -10.9568 -16.5269 5.26359 -4.09663
439 1 -10.3759 -13.2922 7.85999 -4.58201
440 1 -8.32975 -16.1567 7.86268 -4.72057
441 1 -8.13689 -13.3449 5.50968 -4.52362
442 1 -9.65089 -14.8779 6.3268 -4.44669
443 1 -9.35791 -12.044 9.58433 -4.55183
444 1 -6.9473 -14.8636 9.36618 -4.5956
445 1 -6.61591 -12.0915 6.71969 -4.55922
446 1 -5.34769 -16.3063 5.5713 -4.61093
447 1 -5.37967 -13.498 8.2212 -4.623
448 1 -2.69667 -16.1951 8.19688 -4.57307
449 1 -2.84064 -13.4746 5.39257 -4.57903
450 1 -4.06368 -14.8569 6.79484 -4.60371
451 1 -4.04569 -11.9467 9.49553 -4.58369
452 1 -1.39918 -14.6821 9.40779 -4.59724
453 1 -1.19142 -12.1192 6.60752 -4.55
454 1 -0.165873 -16.0317 5.45557 -4.60886
455 1 0.0333174 -13.3592 8.11927 -4.59749
456 1 2.68287 -16.3028 7.91711 -4.63766
457 1 2.55071 -13.3848 5.38068 -4.63442
458 1 1.26663 -14.7605 6.78645 -4.59043
459 1 1.32927 -12.0711 9.53415 -4.60372
460 1 3.85502 -14.9632 9.40164 -4.61658
461 1 4.01202 -12.0662 6.75928 -4.59764
462 1 5.35395 -16.0463 5.30823 -4.54229
463 1 5.29267 -13.6663 8.06731 -4.59473
464 1 8.24142 -16.4584 7.92085 -4.52402
465 1 7.84122 -13.2131 5.82412 -4.53956
466 1 6.71225 -14.9924 6.80049 -4.56128
467 1 6.74042 -12.3548 9.41202 -4.61725
468 1 9.38815 -15.0891 9.43174 -4.54811
469 1 9.44664 -12.1674 7.05306 -4.57156
470 1 10.4782 -16.1713 5.10895 -4.45299
471 1 10.8152 -13.6449 8.26153 -4.60327
472 1 13.6203 -15.9266 8.10728 -3.70682
473 1 13.4996 -13.4382 5.388 -4.5118
474 1 12.0844 -14.946 6.65897 -4.53828
475 1 12.1644 -12.1557 9.62175 -4.42865
476 1 14.1697 -14.7735 10.0463 -4.5386
477 1 14.8642 -11.9813 6.62173 -4.52098
478 1 15.3811 -13.5135 8.44141 -3.69208
479 1 16.7074 -12.6518 10.2534 -4.18165
480 1 -18.7837 -7.62456 5.14625 -3.82697
481 1 -19.436 -6.62411 10.7278 -3.47938
482 1 -17.5526 -10.0146 9.44995 -4.65031
483 1 -17.7556 -6.74985 7.06891 -4.58748
484 1 -16.2929 -10.9109 5.56627 -4.59916
485 1 -16.4357 -8.28845 8.2664 -4.62031
486 1 -13.3367 -10.5638 7.94425 -4.63079
487 1 -13.5034 -7.93294 5.55915 -4.56532
488 1 -14.9999 -9.3778 6.68842 -4.61409
489 1 -15.0567 -6.84016 9.61353 -4.5895
490 1 -12.0059 -9.22354 9.39324 -4.5654
491 1 -12.2632 -6.44291 6.97979 -4.57368
492 1 -10.7748 -10.6221 5.37686 -4.65667
493 1 -10.7317 -7.88334 8.01232 -4.60539
494 1 -7.8323 -10.7923 8.12801 -4.59036
495 1 -8.03722 -8.09819 5.56829 -4.6163
496 1 -9.35632 -9.44115 6.92007 -4.5888
497 1 -9.49489 -6.6664 9.58775 -4.59683
498 1 -6.78129 -9.32384 9.56589 -4.59694
499 1 -6.66447 -6.76683 6.87079 -4.60122
500 1 -5.34687 -10.7052 5.30296 -4.58851
501 1 -5.28055 -8.20231 8.06547 -4.61448
502 1 -2.51347 -10.9189 7.98394 -4.56242
503 1 -2.62922 -8.11487 5.34265 -4.62179
504 1 -3.91552 -9.55168 6.69501 -4.59547
505 1 -4.19335 -6.67587 9.48029 -4.6029
506 1 -1.32759 -9.39199 9.38003 -4.54415
507 1 -1.32112 -6.70477 6.66811 -4.61203
508 1 0.236591 -10.7746 5.28328 -4.56073
509 1 -0.0155725 -7.96566 8.25269 -4.51417
510 1 2.60561 -10.6977 8.12929 -4.63055
511 1 2.53886 -8.15282 5.39495 -4.58909
512 1 1.21357 -9.37508 6.86829 -4.55951
513 1 1.36861 -6.62109 9.42538 -4.54019
514 1 4.14327 -9.43336 9.28763 -4.58252
515 1 3.97907 -6.7904 6.66172 -4.62399
516 1 5.11122 -10.521 5.30114 -4.61226
517 1 5.50118 -7.99527 7.99427 -4.61303
518 1 7.93366 -10.7445 8.24227 -4.58833
519 1 7.93541 -7.89767 5.386 -4.63053
520 1 6.73487 -9.41688 6.69597 -4.56844
521 1 6.65411 -6.50613 9.50264 -4.51459
522 1 9.25203 -9.34269 9.70021 -4.56032
523 1 9.55621 -6.71099 6.64145 -4.57153
524 1 10.5675 -10.6308 5.69242 -4.55721
525 1 10.7011 -8.01829 8.17403 -4.60241
526 1 13.6206 -10.7931 8.19142 -4.52938
527 1 13.5683 -7.84747 5.8311 -4.49072
528 1 12.1632 -9.36713 6.90954 -4.60176
529 1 12.0975 -6.54462 9.5016 -4.60544
530 1 14.9618 -9.26032 9.45019 -4.50347
531 1 15.0999 -6.4483 6.79753 -4.55514
532 1 16.1686 -10.7496 5.03821 -4.57587
533 1 16.4013 -7.79382 8.20849 -4.64557
534 1 18.7275 -7.41705 5.49255 -3.78631
535 1 17.2738 -9.16668 6.48998 -3.68757
536 1 17.9407 -6.4356 9.61856 -4.62254
537 1 19.6085 -5.61564 6.77247 -3.64204
538 1 -19.2246 -5.48403 8.66975 -4.62178
539 1 -19.1707 -2.59 5.6377 -4.59819
540 1 -19.9783 -3.44901 7.68762 -3.71635
541 1 -21.3667 -1.77514 8.59995 -4.09032
542 1 -17.6271 -4.12639 9.66676 -4.59998
543 1 -17.7631 -1.23147 6.93036 -4.47263
544 1 -16.3941 -5.55744 5.58719 -4.46217
545 1 -16.46 -2.52654 8.39024 -4.53989
546 1 -13.8371 -5.24324 8.28244 -4.57478
547 1 -13.7055 -2.73007 5.70575 -4.54572
548 1 -15.1962 -4.00136 6.93644 -4.59948
549 1 -14.9182 -1.20819 9.49965 -4.60751
550 1 -12.3275 -4.04062 9.59327 -4.57489
551 1 -12.1419 -1.52923 6.90694 -4.53614
552 1 -10.9185 -5.30105 5.44046 -4.60815
553 1 -10.7728 -2.84128 8.21227 -4.58947
554 1 -8.09424 -5.39972 8.25336 -4.5993
555 1 -8.24799 -2.77897 5.2671 -4.597
556 1 -9.44055 -4.06584 6.75731 -4.59143
557 1 -9.4374 -1.36667 9.40252 -4.59382
558 1 -6.65402 -3.94344 9.478 -4.59455
559 1 -6.84383 -1.44335 6.64761 -4.59009
560 1 -5.37281 -5.29207 5.40425 -4.60055
561 1 -5.3338 -2.49396 8.13051 -4.57614
562 1 -2.91134 -5.48397 7.92971 -4.60256
563 1 -2.59106 -2.52913 5.44717 -4.59704
564 1 -4.06932 -3.8715 6.72135 -4.60911
565 1 -3.9304 -1.33803 9.6312 -4.58936
566 1 -1.40626 -4.35761 9.36203 -4.5883
567 1 -1.3251 -1.1942 6.77179 -4.54802
568 1 0.0919405 -5.29985 5.3909 -4.62457
569 1 -0.209038 -2.89283 8.0255 -4.57275
570 1 2.89506 -5.40112 8.1765 -4.54796
571 1 2.67816 -2.51613 5.39435 -4.60597
572 1 1.45386 -3.94472 6.73638 -4.5795
573 1 1.29415 -1.46249 9.20336 -4.59323
574 1 4.25693 -3.97458 9.41487 -4.59614
575 1 3.99421 -1.19298 6.71634 -4.55682
576 1 5.21513 -5.30785 5.25271 -4.64401
577 1 5.48069 -2.56093 7.7873 -4.54066
578 1 8.04127 -5.48445 8.13024 -4.51362
579 1 8.15147 -2.63113 5.34018 -4.60571
580 1 6.77027 -4.12458 6.61847 -4.60212
581 1 6.79561 -1.19301 9.32745 -4.59918
582 1 9.42894 -3.96919 9.38709 -4.61693
583 1 9.43493 -1.27458 6.78976 -4.58091
584 1 10.9484 -5.27122 5.31797 -4.608
585 1 10.8607 -2.7793 8.04912 -4.56695
586 1 13.5199 -5.2779 8.12828 -4.61183
587 1 13.5259 -2.50096 5.22738 -4.59585
588 1 12.2903 -3.93344 6.67034 -4.61167
589 1 11.9761 -1.21996 9.47493 -4.61956
590 1 14.9952 -3.92176 9.41279 -4.60547
591 1 14.8618 -1.35396 6.7463 -4.59041
592 1 16.4456 -5.19157 5.28536 -4.45256
593 1 16.3893 -2.64833 7.88758 -4.37607
594 1 18.8415 -4.48151 8.69367 -3.87117
595 1 19.2465 -2.10763 5.1414 -4.41897
596 1 18.0444 -3.82652 6.47254 -5.01804
597 1 17.2116 -0.912998 9.30106 -4.42717
598 1 20.1707 -2.03205 9.59328 -3.97484
599 1 20.3542 -0.227812 6.10918 -4.26314
600 1 -21.3519 0.0669296 7.21839 -4.37506
601 1 -19.186 0.114623 8.29088 -5.08869
602 1 -18.8404 2.97851 5.56732 -4.69614
603 1 -20.3086 2.17014 7.25218 -4.20151
604 1 -20.0652 3.79463 9.04921 -3.61307
605 1 -17.7505 1.41612 9.57686 -4.39585
606 1 -17.3797 4.28041 6.79299 -4.69632
607 1 -16.4758 0.311449 5.55059 -4.54557
608 1 -16.2667 2.86619 8.36125 -4.59944
609 1 -13.6196 0.153632 8.07322 -4.50004
610 1 -13.5734 2.96559 5.43227 -4.60412
611 1 -14.934 1.62503 6.81216 -4.62383
612 1 -14.812 4.22997 9.63501 -4.63621
613 1 -12.2202 1.39307 9.36206 -4.5792
614 1 -12.1795 4.1297 6.93563 -4.60453
615 1 -10.7938 -0.144312 5.50383 -4.58748
616 1 -10.7505 2.77058 8.21392 -4.57135
617 1 -8.00774 -0.0668547 8.14427 -4.62099
618 1 -7.92599 2.59932 5.62408 -4.6049
619 1 -9.41185 1.30044 6.87647 -4.59274
620 1 -9.46078 4.08077 9.55323 -4.56788
621 1 -6.71306 1.25201 9.60295 -4.58325
622 1 -6.63331 4.13719 6.79259 -4.57493
623 1 -5.60951 0.0327232 5.2506 -4.63464
624 1 -5.47806 2.68352 8.15786 -4.61805
625 1 -2.6881 -0.0162728 8.15801 -4.58432
626 1 -2.65519 2.64087 5.60496 -4.58828
627 1 -4.23823 1.24995 6.78014 -4.58591
628 1 -3.92934 3.86905 9.3793 -4.57559
629 1 -1.20377 1.20787 9.5348 -4.60335
630 1 -1.368 4.2798 6.82488 -4.61166
631 1 0.0189899 0.23098 5.5319 -4.56614
632 1 -0.133899 2.89041 8.3271 -4.60849
633 1 2.567 0.149995 8.07067 -4.52369
634 1 2.68472 2.87311 5.3708 -4.60957
635 1 1.22385 1.69717 6.7696 -4.58109
636 1 1.41514 4.15543 9.63796 -4.59952
637 1 3.88098 1.29283 9.46337 -4.51117
638 1 4.179 4.15219 6.62904 -4.58333
639 1 5.60231 0.0200833 5.52642 -4.61891
640 1 5.18769 2.72462 8.15873 -4.58847
641 1 8.17675 0.233946 8.0935 -4.59955
642 1 8.07475 2.99639 5.32868 -4.60912
643 1 6.84998 1.56725 6.82746 -4.58603
644 1 6.61379 4.19899 9.509 -4.55227
645 1 9.47053 1.53554 9.49995 -4.58622
646 1 9.51504 4.14948 6.78611 -4.62133
647 1 10.6366 0.139773 5.50001 -4.56258
648 1 10.8335 2.77532 8.17414 -4.57972
649 1 13.4721 -0.0470447 8.0173 -4.57145
650 1 13.4681 2.85058 5.45518 -4.63106
651 1 12.1153 1.36336 6.7374 -4.60807
652 1 12.0853 4.29012 9.40302 -4.56367
653 1 14.4723 1.39595 9.61979 -4.5167
654 1 14.7743 4.3327 6.76523 -4.54781
655 1 16.0587 0.272989 5.57522 -4.63476
656 1 15.7429 2.92177 8.36191 -4.36623
657 1 18.7142 0.0546923 7.81985 -4.60269
658 1 18.4588 2.73853 5.1629 -4.5903
659 1 17.2686 1.68486 6.96272 -4.61497
660 1 17.4275 4.29694 9.62666 -4.87633
661 1 20.0363 1.55677 8.82163 -4.50172
662 1 19.9286 4.19174 6.2459 -4.59313
663 1 21.1038 2.1097 6.72833 -4.13059
664 1 -18.8812 5.56162 8.01318 -4.60443
665 1 -18.369 8.49561 5.36851 -3.54289
666 1 -19.631 6.5943 6.01711 -4.01124
667 1 -17.803 6.97221 9.54819 -5.03577
668 1 -17.4933 10.1781 6.76954 -4.47962
669 1 -16.2134 5.63235 5.24266 -4.47368
670 1 -16.5293 8.49242 8.09751 -4.39043
671 1 -13.6194 5.66682 8.23754 -4.56059
672 1 -13.6358 8.13745 5.6054 -4.58393
673 1 -15.1451 6.90658 6.88001 -4.58322
674 1 -14.8299 9.29544 9.52398 -4.61272
675 1 -12.2705 6.88815 9.67934 -4.54653
676 1 -12.1204 9.4492 6.90027 -4.60232
677 1 -10.7755 5.34422 5.53101 -4.62724
678 1 -10.797 8.14958 8.29782 -4.61268
679 1 -8.0692 5.37495 8.20617 -4.61539
680 1 -8.26386 8.01997 5.36707 -4.54371
681 1 -9.42689 6.75988 6.90373 -4.61058
682 1 -9.13211 9.43653 9.57417 -4.59295
683 1 -6.59355 6.75692 9.39704 -4.593
684 1 -6.71792 9.37581 6.66678 -4.61701
685 1 -5.2293 5.53211 5.33547 -4.56447
686 1 -5.2412 8.15439 8.14432 -4.60123
687 1 -2.7579 5.60543 8.22654 -4.60144
688 1 -2.61627 8.28595 5.32444 -4.59399
689 1 -3.95813 6.9591 6.63421 -4.59538
690 1 -3.89729 9.54765 9.48427 -4.5991
691 1 -1.25493 6.66668 9.61259 -4.5979
692 1 -1.06348 9.49277 6.81145 -4.56196
693 1 0.190649 5.52461 5.4397 -4.57374
694 1 0.0820149 7.97495 8.17525 -4.59751
695 1 2.83226 5.2809 8.1781 -4.56512
696 1 2.76731 8.24429 5.38976 -4.59344
697 1 1.55454 6.73597 6.8405 -4.61718
698 1 1.45404 9.45325 9.4998 -4.62376
699 1 3.86007 6.96373 9.59963 -4.575
700 1 4.14691 9.41097 6.84104 -4.57371
701 1 5.5367 5.65316 5.39075 -4.59454
702 1 5.38086 8.13479 8.25053 -4.54696
703 1 8.1429 5.38113 8.24772 -4.59764
704 1 8.2981 8.27805 5.39748 -4.63208
705 1 6.93334 6.86019 6.80144 -4.57866
706 1 6.98122 9.35404 9.4377 -4.56465
707 1 9.33287 6.83723 9.74956 -4.55587
708 1 9.64452 9.80329 6.68029 -4.59904
709 1 10.887 5.45634 5.32956 -4.58863
710 1 10.5101 8.17556 8.22796 -4.59366
711 1 13.4277 5.72365 8.16482 -4.62322
712 1 13.3499 8.1951 5.35916 -4.52672
713 1 11.9201 6.88833 6.80247 -4.58004
714 1 12.2448 9.45302 9.32189 -4.54525
715 1 14.8809 6.77445 9.7211 -4.55347
716 1 14.8392 9.53978 6.85509 -4.64911
717 1 15.7996 5.68116 5.16732 -4.20942
718 1 15.9935 8.16387 8.30053 -4.41816
719 1 18 4.92223 7.42888 -4.16564
720 1 19.4098 7.73051 5.73165 -4.13083
721 1 17.1755 7.02554 6.55726 -5.39482
722 1 17.4738 9.54512 9.53664 -4.50568
723 1 19.2549 6.79815 7.89942 -4.13512
724 1 -16.6892 11.9108 8.39947 -4.1513
725 1 -15.9903 11.2267 5.17111 -4.49376
726 1 -16.0938 13.8759 7.26869 -4.25984
727 1 -13.2484 10.725 8.52189 -4.44299
728 1 -12.8253 13.1314 5.79083 -3.98633
729 1 -14.6468 12.0209 6.98286 -5.06074
730 1 -14.2264 14.8254 8.41212 -4.07738
731 1 -11.7075 12.3159 9.34977 -4.61996
732 1 -12.2037 15.0867 7.07478 -5.41678
733 1 -10.6944 10.5343 5.33669 -4.58219
734 1 -10.4312 13.6826 7.91655 -4.34171
735 1 -8.0505 10.7631 7.94973 -4.59131
736 1 -8.10538 13.4938 5.18429 -4.566
737 1 -9.34782 12.0632 6.60574 -4.56218
738 1 -9.26959 15.1146 9.31363 -4.65882
739 1 -6.81436 12.1147 9.42875 -4.5798
740 1 -6.97519 14.9059 6.68755 -4.57646
741 1 -5.38909 10.8216 5.41401 -4.59212
742 1 -5.54165 13.4362 7.83746 -4.53823
743 1 -2.46425 10.791 8.11828 -4.56941
744 1 -2.79574 13.6306 5.72858 -4.61777
745 1 -4.01687 12.0121 6.85058 -4.55185
746 1 -4.13347 14.8378 9.31875 -4.52873
747 1 -1.23264 12.2313 9.70069 -4.5785
748 1 -1.2891 15.0314 7.05059 -4.59568
749 1 0.17749 10.7274 5.32708 -4.5547