ITEM: TIMESTEP
254000
ITEM: NUMBER OF ATOMS
4050
ITEM: BOX BOUNDS ss ss pp
-2.0426754809244244e+01 2.0564222164552412e+01
-2.0414921528143228e+01 2.0546817477727959e+01
-3.4486850000000007e+00 5.7758685000000000e+01
ITEM: ATOMS id type x y z c_peratom
1 1 -11.9679 -15.1942 -1.38554 -3.8502
2 1 -7.4681 -17.6812 -2.79023 -4.21023
3 1 -8.76094 -16.6424 0.659405 -4.61869
4 1 -7.30728 -18.4629 0.162074 -3.75812
5 1 -6.06442 -16.0829 -1.78073 -4.70556
6 1 -5.23773 -17.7445 -0.465174 -4.64116
7 1 -2.69483 -18.1874 -3.53418 -4.59722
8 1 -4.79599 -18.9429 -2.63335 -3.87364
9 1 -3.73311 -16.4365 0.955726 -4.48167
10 1 -0.674498 -19.0803 0.980554 -4.37518
11 1 -1.45433 -16.5667 -2.32395 -4.48103
12 1 0.408242 -19.5892 -2.03277 -4.53371
13 1 0.0491136 -17.629 -0.767235 -4.60104
14 1 3.00927 -17.5161 57.3387 -4.61043
15 1 2.60305 -19.2673 -2.3017 -3.75092
16 1 1.38363 -16.4603 0.743858 -4.60208
17 1 3.45164 -19.426 -0.195293 -4.37237
18 1 3.81093 -16.2847 -2.14023 -4.62202
19 1 5.17818 -17.8817 -0.998994 -4.47518
20 1 6.76524 -18.0103 -2.87803 -4.32407
21 1 9.30725 -17.1062 0.228795 -4.26913
22 1 6.00725 -16.4568 0.707229 -4.45954
23 1 8.68985 -16.6848 -2.10797 -4.1414
24 1 11.3525 -16.2407 0.876909 -3.62562
25 1 -14.534 -12.3602 -1.46114 -4.16945
26 1 -15.2439 -13.3535 0.546949 -4.3158
27 1 -13.9748 -15.195 -0.205026 -4.20568
28 1 -12.3782 -13.1644 57.2707 -4.51034
29 1 -13.825 -14.3731 -2.53138 -4.48534
30 1 -13.8789 -11.294 0.579345 -4.25442
31 1 -11.1688 -13.9786 0.589606 -4.84981
32 1 -11.5276 -11.6407 -2.25655 -4.49412
33 1 -10.0911 -15.7054 57.6798 -4.0881
34 1 -9.99511 -12.5699 -0.915989 -4.33561
35 1 -7.56088 -14.986 -0.41996 -4.57965
36 1 -7.44714 -12.6156 57.7732 -4.56986
37 1 -8.76129 -14.2081 -2.28391 -4.58142
38 1 -8.94078 -11.4882 0.868991 -4.4936
39 1 -6.30858 -13.9326 1.24464 -4.49972
40 1 -6.18187 -11.4243 -1.92892 -4.53257
41 1 -4.78464 -15.3238 57.5375 -4.51903
42 1 -5.03053 -12.7652 -0.506204 -4.48987
43 1 -2.49299 -15.2041 -0.612712 -4.51827
44 1 -2.19624 -12.8014 57.5259 -4.53795
45 1 -3.6549 -13.8782 -2.17636 -4.56878
46 1 -3.87659 -11.2936 0.886685 -4.57569
47 1 -1.23004 -13.7851 0.735172 -4.58912
48 1 -0.986252 -11.4119 -2.1243 -4.5238
49 1 0.229726 -15.4758 57.3649 -4.48744
50 1 0.334422 -12.5106 -0.576758 -4.50782
51 1 2.60557 -14.9935 -0.670432 -4.53715
52 1 2.60135 -12.7826 57.483 -4.54952
53 1 1.19301 -14.0213 -2.22589 -4.4712
54 1 1.3833 -11.1978 1.12927 -4.48338
55 1 3.75281 -13.8563 1.12415 -4.49108
56 1 3.75793 -11.4707 -2.20725 -4.50743
57 1 5.11255 -14.7926 -3.35965 -4.6231
58 1 5.04581 -12.5819 -0.461416 -4.53301
59 1 7.78596 -15.2924 -0.376537 -4.9908
60 1 7.74385 -12.6961 -3.67881 -4.45879
61 1 6.60275 -13.7788 -1.85635 -4.37462
62 1 6.5338 -11.3406 1.0376 -4.52374
63 1 9.01343 -13.8933 1.13529 -4.46897
64 1 8.53322 -11.2474 -1.96913 -4.5408
65 1 10.3914 -15.562 -3.4862 -4.35629
66 1 9.92905 -12.291 -0.338084 -4.3323
67 1 12.4823 -15.0155 -0.757818 -4.58945
68 1 12.3007 -12.4834 -3.04042 -4.32741
69 1 10.8332 -13.8548 -1.95724 -4.75249
70 1 11.3234 -11.1431 1.2918 -4.62046
71 1 13.8534 -13.2589 0.17502 -4.0601
72 1 13.6259 -11.2935 -1.25869 -5.35474
73 1 15.8047 -12.4869 -1.26304 -4.00862
74 1 15.8298 -10.4058 -0.208823 -4.01879
75 1 -17.6642 -7.4309 56.9319 -4.19792
76 1 -18.5542 -5.94156 2.09414 -4.00666
77 1 -16.5257 -8.90398 1.44839 -3.65885
78 1 -16.7192 -6.59632 -2.03453 -4.4103
79 1 -15.34 -10.5844 -3.184 -4.1787
80 1 -15.489 -7.77424 -0.377917 -4.53403
81 1 -12.3438 -10.0861 -0.632454 -4.50209
82 1 -12.7147 -7.67554 57.7728 -4.52589
83 1 -14.0349 -8.93409 -1.85489 -4.6226
84 1 -13.9645 -6.6464 0.964651 -4.48071
85 1 -11.3433 -8.72437 0.942558 -4.54689
86 1 -11.5088 -6.28184 -1.967 -4.52695
87 1 -10.1829 -10.1373 57.7202 -4.58265
88 1 -9.9352 -7.46725 -0.434506 -4.57807
89 1 -7.43384 -10.1359 -0.307297 -4.58744
90 1 -7.51777 -7.72812 -3.45879 -4.54613
91 1 -8.83012 -8.95869 -1.82778 -4.54058
92 1 -8.7594 -6.05164 1.11638 -4.54018
93 1 -6.39244 -8.71305 1.31083 -4.5387
94 1 -6.10251 -6.53038 -2.00895 -4.55043
95 1 -4.90663 -10.1395 57.6893 -4.5428
96 1 -4.99126 -7.70668 -0.372102 -4.4495
97 1 -2.34613 -10.1842 -0.580523 -4.55293
98 1 -2.37055 -7.68815 57.6591 -4.53474
99 1 -3.71261 -8.8858 -2.04245 -4.53532
100 1 -3.6664 -6.2585 1.2064 -4.50901
101 1 -1.31132 -8.73928 0.957404 -4.50406
102 1 -1.19291 -6.40343 -2.0215 -4.53269
103 1 0.230282 -10.163 57.4894 -4.51818
104 1 0.216983 -7.57114 -0.519168 -4.57533
105 1 2.60878 -10.0346 -0.56059 -4.48121
106 1 2.60917 -7.36872 57.5048 -4.50813
107 1 1.42158 -8.87247 -2.18359 -4.5049
108 1 1.38532 -6.08436 0.908369 -4.54111
109 1 3.90909 -8.69478 1.01452 -4.54922
110 1 3.84355 -6.21544 -2.14816 -4.48056
111 1 4.95692 -10.0078 57.6215 -4.49671
112 1 5.17126 -7.26436 -0.457898 -4.51944
113 1 7.50422 -9.82611 -0.421571 -4.46389
114 1 7.40356 -7.33014 -3.39394 -4.48738
115 1 6.21557 -8.69512 -1.97231 -4.51465
116 1 6.41014 -6.05635 1.17194 -4.54905
117 1 8.83031 -8.67137 1.15519 -4.51985
118 1 8.62535 -6.20661 -1.68872 -4.54269
119 1 9.89113 -9.90248 -3.36474 -4.56646
120 1 10.0578 -7.36794 -0.200025 -4.5263
121 1 12.4618 -9.63296 -0.0911404 -4.32173
122 1 12.1174 -7.47812 -3.48636 -4.47956
123 1 11.1574 -8.75099 -1.8004 -4.41158
124 1 11.2685 -6.11779 1.36969 -4.4941
125 1 13.8538 -8.52859 1.38013 -4.54454
126 1 13.4121 -6.15954 -1.93172 -4.61895
127 1 14.4782 -10.0047 -3.18212 -4.32859
128 1 14.8908 -7.24384 -0.37436 -4.63623
129 1 16.2699 -6.7985 57.705 -4.51931
130 1 16.0899 -8.71653 -1.94496 -4.41753
131 1 15.99 -5.36213 0.451996 -4.30409
132 1 18.1062 -5.37235 -3.39586 -3.93405
133 1 -18.0407 -5.20817 -0.670895 -3.85712
134 1 -17.6145 -2.70258 -3.15997 -5.04499
135 1 -19.1033 -3.11521 -1.342 -4.27899
136 1 -17.9068 -2.08754 0.414935 -4.61688
137 1 -16.608 -4.98685 1.22866 -4.56124
138 1 -16.3207 -0.870006 -2.26493 -4.56483
139 1 -15.1157 -5.34037 57.9367 -4.55538
140 1 -15.6509 -2.33192 -0.45222 -4.41749
141 1 -12.7284 -5.18547 -0.298093 -4.55076
142 1 -12.9325 -2.65323 -3.41723 -4.47677
143 1 -14.0682 -3.86063 -1.65197 -4.42171
144 1 -14.2485 -1.32925 1.05299 -4.44841
145 1 -11.4843 -3.63242 0.918479 -4.56954
146 1 -11.3609 -1.55933 -1.91558 -4.54768
147 1 -10.1393 -5.15465 57.7549 -4.56119
148 1 -9.83864 -2.62122 -0.315188 -4.4556
149 1 -7.2553 -5.08601 -0.477648 -4.52176
150 1 -7.54704 -2.59853 -3.57154 -4.58459
151 1 -8.64324 -3.97799 -1.95355 -4.53858
152 1 -8.83669 -1.2019 1.07828 -4.48655
153 1 -6.20104 -3.72051 1.14835 -4.53414
154 1 -6.42575 -1.20303 -1.98739 -4.55365
155 1 -4.8748 -5.06378 -3.32519 -4.52394
156 1 -4.9638 -2.38733 -0.509883 -4.4831
157 1 -2.22813 -5.12797 -0.281737 -4.4888
158 1 -2.48045 -2.59178 -3.3337 -4.57907
159 1 -3.64743 -3.85803 -1.72615 -4.57108
160 1 -3.89287 -1.14359 1.32584 -4.45682
161 1 -1.38273 -3.33347 1.21523 -4.50583
162 1 -1.24117 -1.17764 -1.92073 -4.55607
163 1 0.207225 -5.07745 57.7137 -4.5114
164 1 0.149538 -2.31274 -0.438011 -4.529
165 1 2.82284 -4.81828 -0.514944 -4.54154
166 1 2.48045 -2.18786 57.7915 -4.48701
167 1 1.37779 -3.67841 -1.91342 -4.56507
168 1 1.34307 -0.945424 1.11219 -4.5646
169 1 3.87862 -3.47483 1.10039 -4.51396
170 1 3.75199 -1.00663 -1.945 -4.50747
171 1 5.10205 -4.73041 -3.60134 -4.55111
172 1 5.18776 -2.05591 -0.327523 -4.53737
173 1 7.59559 -4.64643 -0.312984 -4.54898
174 1 7.59267 -2.22536 -3.41791 -4.54603
175 1 6.27269 -3.45739 -1.87308 -4.50287
176 1 6.49788 -0.859797 1.31529 -4.50617
177 1 8.86022 -3.53426 1.41163 -4.54006
178 1 8.7301 -1.06611 -1.73993 -4.50011
179 1 9.90745 -4.87569 58.0075 -4.45018
180 1 10.0647 -2.13393 -0.0600562 -4.52138
181 1 12.3947 -4.83014 -0.194196 -4.42131
182 1 12.4042 -2.27347 -3.26516 -4.46668
183 1 11.1059 -3.50261 -1.66774 -4.52701
184 1 11.4471 -1.1279 1.61779 -4.5198
185 1 14.1049 -3.98686 1.32979 -4.84764
186 1 13.5338 -1.11949 -1.5096 -4.50095
187 1 14.6671 -4.93236 -3.4809 -4.52713
188 1 15.1 -2.35699 -0.19354 -4.35983
189 1 17.5557 -4.46877 -1.2585 -4.61838
190 1 17.3928 -2.09165 57.5514 -4.72228
191 1 15.8463 -3.22374 -2.31317 -4.6447
192 1 16.546 -1.30879 1.4171 -4.33684
193 1 18.8526 -2.54466 -0.557107 -3.92145
194 1 19.0044 -0.722507 -2.6122 -3.82037
195 1 -19.5705 -1.18042 -2.73148 -4.36643
196 1 -18.3793 0.208448 0.871104 -4.22607
197 1 -18.1496 2.46905 -3.07261 -4.31872
198 1 -18.1631 0.497663 -1.75111 -4.38362
199 1 -18.8308 4.54217 2.30195 -3.81105
200 1 -16.5312 1.48987 1.50758 -4.55458
201 1 -16.7991 3.51241 -1.36351 -4.45119
202 1 -15.0887 0.291334 57.3406 -4.51556
203 1 -15.1396 2.45463 -0.104449 -4.46575
204 1 -12.7901 -0.186689 -0.57975 -4.5459
205 1 -12.6064 2.76093 57.9428 -4.56682
206 1 -13.952 1.37626 -1.88917 -4.4646
207 1 -14.1893 3.97697 1.42194 -4.52911
208 1 -11.5352 1.31446 0.984865 -4.5155
209 1 -11.3784 4.04994 -1.7106 -4.43602
210 1 -10.225 0.0985588 57.8438 -4.56606
211 1 -10.1764 2.74501 -0.266043 -4.56759
212 1 -7.67553 0.102569 -0.516493 -4.55405
213 1 -7.63902 2.85476 57.755 -4.56743
214 1 -9.00912 1.51523 -1.94925 -4.58309
215 1 -8.96305 4.04975 1.17564 -4.5324
216 1 -6.45556 1.4971 1.02826 -4.50887
217 1 -6.36613 4.1205 -1.89962 -4.55159
218 1 -5.17472 0.0455073 57.8109 -4.51988
219 1 -5.16505 2.7946 -0.322917 -4.50907
220 1 -2.73217 -0.109827 -0.410892 -4.51343
221 1 -2.67122 2.53316 -3.31212 -4.51344
222 1 -4.00844 1.30965 -1.88935 -4.53367
223 1 -3.9055 3.83948 1.39719 -4.57887
224 1 -1.65786 1.36132 1.10474 -4.48074
225 1 -1.4529 3.99292 -1.73351 -4.52124
226 1 -0.146512 0.267507 -3.5796 -4.56248
227 1 -0.247236 2.54834 -0.278377 -4.57404
228 1 2.44947 0.379469 -0.557668 -4.59421
229 1 2.55893 2.91217 57.6937 -4.50374
230 1 1.09298 1.60254 -2.02834 -4.51887
231 1 1.25154 3.87046 1.04414 -4.52627
232 1 3.82639 1.63124 0.964031 -4.45215
233 1 3.65036 4.27007 -2.01377 -4.53335
234 1 4.92546 0.283271 57.7688 -4.54082
235 1 5.07507 2.94977 -0.706293 -4.5391
236 1 7.58376 0.461891 -0.272822 -4.50125
237 1 7.64376 2.962 57.8276 -4.57037
238 1 6.42481 1.47124 -2.04085 -4.562
239 1 6.42982 3.98451 0.99242 -4.4934
240 1 9.01236 1.6293 1.20027 -4.49338
241 1 8.9056 4.18756 -1.85961 -4.48193
242 1 9.97431 0.327634 -3.21641 -4.54446
243 1 10.2482 2.9356 -0.312019 -4.60749
244 1 12.4336 0.270288 0.00493134 -4.54141
245 1 12.7067 3.05154 -3.11608 -4.26007
246 1 11.5324 1.56635 -1.79249 -4.51312
247 1 11.7156 4.11189 1.13922 -4.56879
248 1 14.086 1.32669 1.28859 -4.54674
249 1 14.3949 4.42634 -1.89068 -4.90546
250 1 14.88 0.0712589 -3.00371 -4.52426
251 1 15.1714 2.63793 -0.313981 -4.19939
252 1 17.9194 -0.29077 -0.36499 -4.78632
253 1 17.3261 1.97942 57.4535 -4.39246
254 1 16.4769 1.19358 -1.64555 -4.42688
255 1 16.757 3.96105 0.791383 -4.94881
256 1 19.245 0.816692 1.3772 -4.17269
257 1 18.9418 3.6591 -3.37085 -4.04798
258 1 19.5978 1.43734 57.2407 -4.12498
259 1 -17.8709 4.96144 0.125867 -3.7545
260 1 -17.5134 8.04509 56.9424 -4.48806
261 1 -17.8123 6.34015 -2.65426 -3.9049
262 1 -16.8186 6.68775 1.32148 -4.55407
263 1 -16.9346 9.03646 -2.17028 -3.90362
264 1 -15.76 5.09674 -2.97338 -5.40638
265 1 -15.7863 7.93094 -0.423739 -4.46213
266 1 -12.9767 5.34929 -0.153224 -4.49232
267 1 -12.8651 7.6995 -3.26226 -4.51831
268 1 -14.3096 6.62411 -1.71681 -4.35121
269 1 -14.4643 9.00536 1.09973 -4.4416
270 1 -11.523 6.64645 1.20529 -4.57379
271 1 -11.7349 9.3519 -1.92476 -4.5356
272 1 -10.307 5.12089 -3.44899 -4.51946
273 1 -10.52 7.82024 -0.493096 -4.50277
274 1 -7.81799 5.24928 -0.402684 -4.55556
275 1 -7.68296 7.60662 57.7706 -4.47917
276 1 -9.18732 6.39862 -1.91596 -4.53835
277 1 -8.99528 8.83519 1.09926 -4.45724
278 1 -6.44116 6.55333 1.07321 -4.50722
279 1 -6.56632 8.95888 -1.90732 -4.56265
280 1 -5.10521 5.39889 -3.4406 -4.45682
281 1 -5.16499 7.91717 -0.350913 -4.55814
282 1 -2.69732 5.18367 -0.150759 -4.51184
283 1 -2.57676 7.83849 -3.24521 -4.52586
284 1 -3.93 6.57304 -1.80136 -4.50482
285 1 -3.85493 9.0526 1.29833 -4.51047
286 1 -1.24598 6.49545 1.3806 -4.56483
287 1 -1.29538 9.10043 -1.75324 -4.50966
288 1 -0.129251 5.11923 -3.44316 -4.52817
289 1 -0.0233539 7.73776 -0.292465 -4.49257
290 1 2.29971 5.43612 -0.346632 -4.51702
291 1 2.35409 7.80949 -3.6512 -4.50774
292 1 1.10457 6.61436 -1.98101 -4.47946
293 1 1.24699 8.96111 1.25576 -4.54566
294 1 3.92416 6.69882 0.995442 -4.51302
295 1 3.72802 9.06191 -2.1058 -4.50308
296 1 4.88523 5.52079 57.5989 -4.5191
297 1 5.17793 7.94748 -0.575801 -4.55909
298 1 7.69892 5.48533 -0.398752 -4.55483
299 1 7.36584 7.77761 57.3747 -4.47946
300 1 6.32374 6.54795 -2.05831 -4.49476
301 1 6.49477 9.38137 0.847707 -4.41761
302 1 9.17506 6.74038 0.954376 -4.47484
303 1 8.62086 8.95656 -2.21022 -4.6138
304 1 10.0422 5.23776 57.4433 -4.45663
305 1 10.2806 8.02766 -0.774567 -4.3221
306 1 12.7894 5.51807 -0.497572 -4.37005
307 1 12.2367 7.77864 57.2547 -4.49287
308 1 11.3361 6.43295 -2.18251 -4.50128
309 1 12.1371 9.6906 1.91363 -4.43017
310 1 14.2194 6.62004 1.11838 -4.55006
311 1 13.7585 8.67531 -2.34612 -4.22793
312 1 14.6607 5.31809 57.0351 -4.35919
313 1 16.081 7.85424 0.156968 -4.32165
314 1 18.0118 4.90253 -0.934849 -3.81922
315 1 16.7141 6.38873 57.423 -4.57329
316 1 16.0929 6.10415 -1.42987 -4.36583
317 1 16.7516 8.44699 2.3258 -4.35308
318 1 18.7269 5.22656 1.39226 -4.10949
319 1 -15.8199 12.9926 2.5763 -4.22722
320 1 -15.3119 10.4602 -3.27435 -4.5271
321 1 -15.4208 13.3245 0.14029 -4.03172
322 1 -12.9345 10.3848 -0.167156 -4.55559
323 1 -13.1475 12.8132 -2.95974 -4.60469
324 1 -14.5068 11.7236 -1.37215 -4.46014
325 1 -13.5872 13.5331 2.03666 -4.78419
326 1 -11.311 11.3277 1.31933 -4.40096
327 1 -12.0575 14.233 -1.44371 -4.46339
328 1 -10.1856 10.3932 -3.37367 -4.60096
329 1 -10.5493 12.7244 -0.459417 -4.45452
330 1 -7.7773 10.3625 -0.44872 -4.48948
331 1 -7.81225 12.8429 57.5439 -4.50638
332 1 -8.88349 11.6726 -1.97669 -4.45122
333 1 -9.21315 13.9763 1.04316 -4.47836
334 1 -6.42276 11.4884 1.23313 -4.50481
335 1 -6.45931 14.0188 -2.21213 -4.5557
336 1 -5.20122 10.3891 -3.37985 -4.53683
337 1 -5.44191 12.7321 -0.525813 -4.48301
338 1 -2.59052 10.298 -0.275087 -4.51622
339 1 -2.65376 12.8084 -3.27783 -4.59776
340 1 -3.9134 11.5193 -1.77668 -4.57911
341 1 -4.06368 13.8516 1.12335 -4.46176
342 1 -1.32653 11.4737 1.27328 -4.52508
343 1 -1.25919 14.0196 -1.73293 -4.55017
344 1 -0.151176 10.2439 -3.43393 -4.4983
345 1 -0.131992 12.435 -0.532961 -4.50898
346 1 2.64006 10.2904 -0.274289 -4.46693
347 1 2.60105 12.9348 57.9313 -4.48282
348 1 1.35046 11.3979 -1.97411 -4.55349
349 1 0.955458 13.7698 1.00192 -4.51418
350 1 3.83944 11.5958 1.27961 -4.58094
351 1 3.93283 14.0669 -1.55987 -4.62605
352 1 5.00597 10.2694 57.5386 -4.50807
353 1 5.26167 12.7351 -0.192379 -4.4114
354 1 7.8842 10.5717 -0.619537 -4.34414
355 1 7.21651 12.8828 57.6719 -4.4492
356 1 6.18536 11.473 -1.94188 -4.53265
357 1 6.35451 14.2561 1.5098 -4.53435
358 1 9.50927 12.3197 1.66495 -4.44191
359 1 8.45052 14.2455 -1.97548 -4.83371
360 1 9.94222 10.2028 57.5702 -4.40456
361 1 9.48038 12.3081 -0.848202 -4.68391
362 1 12.4356 9.53532 -0.585 -4.71001
363 1 12.4141 12.1369 57.3244 -4.23157
364 1 11.2543 11.1233 -1.88226 -4.70477
365 1 11.0335 14.0846 1.92801 -4.50262
366 1 13.9918 11.0687 2.12176 -4.52507
367 1 12.9266 12.8369 -1.69356 -4.32387
368 1 15.3049 9.86539 57.4139 -4.20086
369 1 14.2309 11.3277 -0.278952 -4.34005
370 1 15.6589 9.71805 -1.38672 -4.2872
371 1 -13.723 14.9575 0.121888 -4.16449
372 1 -12.8097 15.7985 2.33285 -4.0935
373 1 -9.64414 15.4451 57.631 -4.50232
374 1 -8.01824 14.9759 -0.706655 -4.48645
375 1 -8.65073 17.5366 57.3066 -4.5298
376 1 -9.37253 16.8987 -1.67329 -4.40142
377 1 -6.58401 15.9858 0.845241 -4.74613
378 1 -7.58399 18.3707 -1.98528 -3.6011
379 1 -5.21035 15.6319 57.896 -4.53043
380 1 -5.83487 17.6837 -0.430495 -4.66403
381 1 -2.77782 15.1281 -0.361831 -4.61021
382 1 -2.60469 17.908 -3.24315 -4.53685
383 1 -4.0137 16.6568 -1.6144 -4.47062
384 1 -5.30471 18.9702 1.59079 -4.07191
385 1 -1.6343 16.341 1.26158 -4.56839
386 1 -1.01491 18.914 -1.85097 -3.71645
387 1 0.0154932 15.132 -3.33296 -4.45624
388 1 -0.1903 17.603 -0.0943098 -4.74193
389 1 2.44095 15.223 -0.151381 -4.6073
390 1 2.45328 18.0314 -2.56378 -4.42044
391 1 1.11935 16.3883 -1.62783 -4.64141
392 1 0.992184 19.2231 1.21467 -4.51496
393 1 3.51894 16.6065 1.334 -4.59315
394 1 2.67023 19.185 -0.532983 -4.25634
395 1 4.80674 15.418 -3.17647 -3.58502
396 1 4.78685 18.0451 -0.00679101 -4.46121
397 1 7.30828 16.0944 -1.07599 -4.35026
398 1 8.74659 17.4636 -2.45069 -4.3884
399 1 5.54425 17.2584 -2.18687 -4.52179
400 1 5.69378 19.3182 1.79892 -3.75843
401 1 7.94525 16.0487 1.32946 -4.39869
402 1 9.61936 14.8456 57.1094 -4.37327
403 1 11.231 13.9836 -0.512189 -4.28662
404 1 10.3539 15.7279 -2.05101 -4.28831
405 1 1.12693 19.9121 -2.30243 -4.35709
406 1 -12.2956 -15.9099 1.73125 -4.08619
407 1 -7.59012 -17.7738 2.40989 -3.68306
408 1 -8.89042 -16.3852 6.88299 -3.67643
409 1 -6.30019 -18.6671 7.86244 -4.03228
410 1 -6.02585 -16.9328 3.97135 -4.5115
411 1 -4.8154 -17.9277 5.93844 -4.31539
412 1 -2.47856 -17.9309 2.39913 -4.44401
413 1 -3.27149 -19.0268 4.46866 -3.53761
414 1 -3.20652 -16.7253 6.99181 -5.02459
415 1 -1.72741 -18.5206 6.24202 -4.3694
416 1 -1.29314 -16.376 3.50216 -4.65821
417 1 1.19218 -20.346 0.244518 -4.00664
418 1 0.0463041 -17.7815 4.86397 -4.20285
419 1 2.97323 -17.9643 1.71458 -4.51263
420 1 1.03675 -19.0794 2.53707 -3.99779
421 1 0.982854 -16.3181 6.40909 -4.42726
422 1 4.13883 -18.6457 7.50262 -4.37743
423 1 3.61499 -16.7018 3.70965 -4.4126
424 1 5.04734 -17.6821 5.36891 -4.50591
425 1 7.65225 -17.6469 1.91018 -4.36763
426 1 6.87376 -18.3538 4.17217 -3.38773
427 1 6.29954 -16.3346 6.79322 -4.45005
428 1 8.79412 -16.7912 3.88883 -4.33036
429 1 12.9493 -14.8581 8.20527 -4.51856
430 1 -17.1346 -9.77371 4.58297 -4.28361
431 1 -16.0934 -11.9443 4.21523 -4.14681
432 1 -12.8916 -14.5821 3.6618 -4.12467
433 1 -12.5251 -12.6527 2.12445 -4.82078
434 1 -14.7676 -13.3706 2.83165 -4.14986
435 1 -14.4444 -11.6903 6.00222 -4.98776
436 1 -11.6647 -14.2551 5.88649 -4.4476
437 1 -11.5151 -11.3101 3.76921 -4.39073
438 1 -10.0447 -15.3666 2.1736 -4.17518
439 1 -10.1547 -12.5672 5.25205 -4.61155
440 1 -7.42123 -15.5466 5.30592 -4.66502
441 1 -7.80812 -12.6909 2.54998 -4.57095
442 1 -8.92181 -14.1979 4.0511 -4.49183
443 1 -8.98145 -11.6163 7.01233 -4.52838
444 1 -6.21711 -14.1142 6.72875 -4.57224
445 1 -6.47273 -11.4871 4.14812 -4.58139
446 1 -5.00526 -15.3262 2.54929 -4.59036
447 1 -4.90499 -12.6363 5.58046 -4.56086
448 1 -2.44319 -15.4156 5.1478 -4.25675
449 1 -2.51676 -12.6204 2.33473 -4.57713
450 1 -3.70481 -13.8653 3.90522 -4.57617
451 1 -3.80672 -11.2973 7.27853 -4.54522
452 1 -1.42135 -13.7229 6.71139 -4.50068
453 1 -1.38626 -11.2225 3.85984 -4.56648
454 1 0.122262 -15.028 2.15818 -4.55169
455 1 0.0256618 -12.5304 5.25489 -4.54215
456 1 2.64653 -15.2253 5.31407 -4.52741
457 1 2.70731 -12.5262 2.66989 -4.58759
458 1 1.25355 -13.9691 3.91392 -4.60456
459 1 1.10158 -11.3361 7.12004 -4.50637
460 1 3.68089 -13.7354 6.83316 -4.48911
461 1 3.80886 -11.1191 4.23957 -4.52336
462 1 5.02638 -15.2874 2.51317 -4.55704
463 1 5.17124 -12.6559 5.53261 -4.5967
464 1 7.91849 -15.2313 5.53744 -4.46144
465 1 7.60754 -12.6373 2.58499 -4.56226
466 1 6.35874 -14.1213 4.06779 -4.52354
467 1 6.44455 -11.4083 7.17508 -4.56472
468 1 9.21471 -13.9001 7.12355 -4.43291
469 1 8.85119 -11.2584 4.07028 -4.60423
470 1 10.0763 -15.2924 2.62763 -4.50471
471 1 10.245 -12.5834 5.47577 -4.60881
472 1 13.0994 -14.4501 5.78198 -3.59731
473 1 12.9533 -12.4078 2.36331 -4.48412
474 1 11.6306 -13.8217 3.91016 -4.50884
475 1 11.736 -11.3353 6.88582 -4.44518
476 1 13.1094 -12.5608 8.35619 -4.62353
477 1 14.3955 -11.2224 3.75785 -4.52175
478 1 14.8601 -12.8791 5.56808 -3.58353
479 1 15.4099 -12.6839 7.89863 -4.51458
480 1 -17.7082 -7.88116 3.14848 -4.63652
481 1 -18.7245 -4.87034 8.66091 -4.3524
482 1 -16.7537 -8.88415 6.83273 -4.37965
483 1 -16.1624 -6.57762 4.2212 -4.72551
484 1 -15.3566 -10.0525 3.05747 -4.62154
485 1 -14.9536 -7.62559 6.0023 -4.62323
486 1 -12.6401 -10.1187 5.6043 -4.35005
487 1 -12.6022 -7.64451 2.59852 -4.45753
488 1 -13.8117 -8.75634 4.24415 -4.5902
489 1 -13.5458 -6.16334 7.39987 -4.48757
490 1 -11.5414 -8.81518 7.32555 -4.43979
491 1 -11.2915 -6.32688 4.13151 -4.46593
492 1 -10.1104 -10.155 2.35873 -4.58055
493 1 -10.3203 -7.70988 5.73119 -4.4339
494 1 -7.70485 -10.1407 5.62365 -4.59198
495 1 -7.71746 -7.33987 2.78964 -4.56207
496 1 -8.96136 -8.86664 4.03639 -4.5142
497 1 -9.20302 -6.34908 7.31693 -4.55473
498 1 -6.55829 -8.75005 7.20201 -4.56477
499 1 -6.54507 -6.07221 4.41659 -4.54564
500 1 -5.11403 -10.1672 2.65112 -4.5609
501 1 -5.12107 -7.44797 5.78095 -4.59047
502 1 -2.59887 -10.0736 5.62155 -4.5444
503 1 -2.38957 -7.68632 2.74263 -4.49672
504 1 -3.94338 -8.81204 4.22492 -4.5616
505 1 -3.86418 -6.12323 7.26695 -4.58234
506 1 -1.36258 -8.67956 7.10325 -4.52808
507 1 -1.5205 -6.01355 4.1034 -4.50311
508 1 0.00635172 -9.95415 2.45486 -4.58016
509 1 -0.188084 -7.29418 5.63733 -4.55903
510 1 2.36024 -10.0203 5.65968 -4.54789
511 1 2.59288 -7.36422 2.5474 -4.55341
512 1 1.19012 -8.59939 4.10984 -4.53319
513 1 1.27126 -6.2166 7.05468 -4.50006
514 1 3.66977 -8.7851 7.14585 -4.5789
515 1 3.78863 -6.07965 4.14062 -4.55563
516 1 5.15195 -10.0134 2.50796 -4.52919
517 1 5.07083 -7.46005 5.73185 -4.54005
518 1 7.599 -10.0158 5.63241 -4.53516
519 1 7.72506 -7.3161 2.71995 -4.50408
520 1 6.33699 -8.8013 4.17942 -4.51572
521 1 6.27959 -6.3667 7.39133 -4.55897
522 1 8.7749 -8.82502 7.31986 -4.54746
523 1 8.85163 -6.11589 4.52671 -4.53192
524 1 10.1878 -9.7789 2.81304 -4.5897
525 1 10.306 -7.5638 5.9435 -4.52276
526 1 12.9742 -10.1667 5.28483 -4.53039
527 1 12.8477 -7.18139 2.87259 -4.4379
528 1 11.5517 -8.55907 4.27425 -4.58644
529 1 11.5476 -6.36575 7.62051 -4.56737
530 1 14.3426 -9.01453 7.07954 -4.40544
531 1 13.9824 -6.2358 4.87277 -4.50694
532 1 15.597 -9.80436 2.20557 -4.43847
533 1 15.7031 -7.43967 5.92489 -4.63282
534 1 16.8709 -5.93249 2.46359 -4.70405
535 1 16.3475 -7.97276 3.609 -3.53734
536 1 16.9491 -6.29706 7.5928 -4.02183
537 1 18.4942 -4.47448 3.60993 -4.30346
538 1 -17.7153 -5.33066 5.4429 -4.60055
539 1 -17.1842 -3.07122 2.40769 -4.35821
540 1 -18.8967 -4.11132 3.61648 -4.47634
541 1 -19.3539 -1.96912 4.78595 -4.04918
542 1 -16.2634 -3.89896 6.62199 -4.59903
543 1 -17.1435 -1.16016 4.06792 -5.29284
544 1 -14.8591 -5.40498 2.67034 -4.41078
545 1 -15.2621 -2.27396 5.36342 -4.25947
546 1 -12.6267 -4.88397 5.56951 -4.46688
547 1 -12.6959 -2.28585 2.42457 -4.50638
548 1 -13.8955 -3.69031 4.02901 -4.50313
549 1 -14.1403 -1.19566 7.27042 -4.44749
550 1 -11.6507 -3.56032 7.235 -4.47966
551 1 -11.4036 -1.13076 4.11937 -4.45551
552 1 -10.352 -5.03467 2.44895 -4.52626
553 1 -10.2826 -2.52142 5.60374 -4.5074
554 1 -8.0626 -4.90855 5.73657 -4.48826
555 1 -7.54582 -2.4626 2.75571 -4.52385
556 1 -9.03822 -3.76304 4.00777 -4.52333
557 1 -8.93536 -1.3334 7.17377 -4.51833
558 1 -6.71276 -3.68337 7.34888 -4.54049
559 1 -6.29973 -1.09149 4.26386 -4.55139
560 1 -5.08942 -5.14797 2.69586 -4.48947
561 1 -5.29911 -2.44597 5.92141 -4.50089
562 1 -2.60683 -4.79907 5.72748 -4.52063
563 1 -2.68452 -2.24073 2.92894 -4.51247
564 1 -4.13278 -3.6245 4.21039 -4.54356
565 1 -3.81763 -1.12773 7.38082 -4.49513
566 1 -1.14645 -3.66316 7.28802 -4.49417
567 1 -1.12776 -0.94696 4.15955 -4.54336
568 1 -0.0880615 -4.90468 2.48753 -4.52633
569 1 0.0123618 -2.25908 5.70129 -4.50938
570 1 2.5049 -4.85194 5.62267 -4.5412
571 1 2.61956 -2.28127 2.6572 -4.52997
572 1 1.15694 -3.49657 4.12807 -4.5384
573 1 1.39579 -1.11023 7.25786 -4.5237
574 1 3.71745 -3.71311 7.29112 -4.51398
575 1 3.79978 -0.916563 4.30662 -4.52306
576 1 5.19664 -4.74772 2.73832 -4.5033
577 1 5.0361 -2.1664 5.90296 -4.6016
578 1 7.49462 -4.8686 6.0738 -4.57148
579 1 7.63278 -2.219 2.98413 -4.5335
580 1 6.45569 -3.49008 4.52857 -4.47858
581 1 6.47525 -0.965309 7.36588 -4.59582
582 1 9.10208 -3.749 7.44654 -4.58367
583 1 9.09321 -0.991813 4.40237 -4.56086
584 1 10.1524 -4.83578 3.00844 -4.51839
585 1 10.2575 -2.20625 6.0028 -4.54049
586 1 12.5411 -4.85243 6.20096 -4.54878
587 1 12.7357 -2.60267 3.00087 -4.27935
588 1 11.4187 -3.64921 4.56359 -4.51084
589 1 11.6145 -1.04971 7.59945 -4.56077
590 1 14.116 -3.85497 7.57319 -4.46466
591 1 13.8697 -1.30534 4.49289 -4.54103
592 1 15.0211 -4.72704 3.46551 -4.53839
593 1 15.381 -2.26005 6.14869 -4.46492
594 1 17.4925 -4.70954 5.87879 -3.47888
595 1 18.4942 -2.47299 1.91954 -4.22169
596 1 16.5774 -3.20372 4.28179 -4.60549
597 1 16.449 -0.49122 7.03944 -4.33514
598 1 18.64 -0.949331 7.94183 -4.34462
599 1 19.2374 -0.567379 3.23883 -4.33792
600 1 -19.381 -0.192482 3.26665 -3.96806
601 1 -17.5106 0.355966 5.85978 -4.48704
602 1 -17.9059 2.62039 3.19977 -4.54656
603 1 -19.1861 1.69027 4.88282 -4.48921
604 1 -18.5143 3.37604 6.53559 -4.13258
605 1 -16.1404 1.35089 7.55274 -4.58382
606 1 -17.0331 4.18638 4.77932 -4.94764
607 1 -15.4242 -0.0589857 2.81126 -4.33854
608 1 -15.2931 2.71451 5.8505 -4.31859
609 1 -12.6886 0.11721 5.8721 -4.503
610 1 -12.7484 2.50807 2.7308 -4.5552
611 1 -14.1433 1.27562 4.26111 -4.51506
612 1 -14.1426 3.95137 7.44292 -4.54522
613 1 -11.4712 1.38303 7.44421 -4.58413
614 1 -11.5089 3.83321 4.14211 -4.54046
615 1 -10.2012 0.104013 2.48597 -4.50283
616 1 -10.1926 2.81057 5.89093 -4.47394
617 1 -7.678 0.0960416 5.81488 -4.5509
618 1 -7.72178 2.61589 2.64896 -4.52515
619 1 -9.03611 1.32623 4.29667 -4.44541
620 1 -9.01742 4.09326 7.53043 -4.51988
621 1 -6.55708 1.35173 7.53698 -4.53738
622 1 -6.33663 3.8492 4.2795 -4.45092
623 1 -5.20286 0.373761 2.71668 -4.43918
624 1 -5.28315 2.53981 5.89677 -4.50544
625 1 -2.53112 0.162458 5.75447 -4.5322
626 1 -2.52745 2.58661 2.98828 -4.48739
627 1 -3.95382 1.27941 4.36491 -4.49426
628 1 -4.05289 3.88384 7.37277 -4.58314
629 1 -1.16961 1.3387 7.34883 -4.53116
630 1 -1.46973 4.18695 4.3989 -4.44716
631 1 -0.0594647 0.353385 2.56804 -4.52605
632 1 0.0309163 2.86243 5.82401 -4.55465
633 1 2.4507 0.338117 5.77688 -4.56219
634 1 2.61316 2.73867 2.69585 -4.51151
635 1 1.13292 1.58818 4.2351 -4.50761
636 1 1.41677 4.04866 7.36314 -4.57877
637 1 3.862 1.63892 7.24781 -4.55616
638 1 3.81901 4.17549 4.17147 -4.51298
639 1 4.97453 0.318132 2.71987 -4.51708
640 1 5.11795 2.92264 5.77412 -4.56041
641 1 7.6624 0.334648 5.77447 -4.58522
642 1 7.75192 2.89044 2.7697 -4.51447
643 1 6.33684 1.5662 4.20008 -4.57492
644 1 6.62167 4.11774 7.12745 -4.53703
645 1 9.08308 1.39916 7.28783 -4.46282
646 1 9.08552 4.13967 4.17973 -4.42929
647 1 10.0516 0.439002 2.86106 -4.51619
648 1 10.0435 2.90371 5.99686 -4.42341
649 1 12.6704 0.182513 5.82226 -4.5198
650 1 12.7791 2.71342 2.74611 -4.55166
651 1 11.4238 1.63417 4.4505 -4.54511
652 1 11.6291 3.95928 7.24384 -4.51977
653 1 13.92 1.42043 7.49653 -4.51737
654 1 14.0903 4.08668 4.21045 -4.46819
655 1 15.1098 -0.0929458 2.91378 -4.53191
656 1 15.157 2.73978 5.85442 -4.41988
657 1 17.7073 0.0793995 5.00709 -4.5849
658 1 17.5623 2.14747 2.1741 -4.53944
659 1 16.2813 1.59118 3.98947 -4.57298
660 1 16.7446 3.91858 7.30363 -4.36322
661 1 19.121 1.72225 5.80411 -4.41757
662 1 19.132 3.57149 3.04277 -4.49031
663 1 20.4234 1.60905 3.63422 -4.07126
664 1 -18.7991 5.80715 6.92049 -4.36836
665 1 -17.8165 7.618 3.35745 -3.48362
666 1 -18.7898 5.72839 4.46176 -4.35918
667 1 -16.705 6.78035 7.35539 -4.65045
668 1 -16.7144 9.51924 4.59046 -4.53118
669 1 -15.8343 4.98491 2.87759 -4.3034
670 1 -15.4041 7.81779 5.6156 -4.53422
671 1 -12.933 5.02187 5.61781 -4.49939
672 1 -13.0379 7.74671 2.68166 -4.52485
673 1 -14.3185 6.32706 4.08129 -4.56598
674 1 -14.0909 8.9132 7.30876 -4.65479
675 1 -11.6154 6.26831 7.16 -4.47843
676 1 -11.5452 8.81975 4.21596 -4.47273
677 1 -10.278 5.26472 2.72552 -4.55067
678 1 -10.3134 7.66323 5.68424 -4.5204
679 1 -7.81436 5.06079 5.82722 -4.459
680 1 -7.74298 7.656 2.81247 -4.45761
681 1 -9.01419 6.41961 4.26022 -4.55314
682 1 -8.9749 8.94886 7.28412 -4.52146
683 1 -6.42915 6.52264 7.30998 -4.56049
684 1 -6.47144 8.87522 4.4239 -4.57021
685 1 -5.39808 5.16571 2.62901 -4.45677
686 1 -4.93876 7.5632 5.84128 -4.52771
687 1 -2.63116 5.32968 6.06853 -4.47795
688 1 -2.67521 7.55843 2.89095 -4.56386
689 1 -3.98196 6.07853 4.20963 -4.45896
690 1 -3.92038 8.90893 7.55297 -4.55444
691 1 -1.21793 6.68166 7.30392 -4.51168
692 1 -1.56141 9.10817 4.32632 -4.5669
693 1 -0.1045 4.90457 2.69072 -4.51943
694 1 -0.0782465 7.77521 5.63806 -4.52656
695 1 2.56815 5.49442 5.87465 -4.49899
696 1 2.47991 7.56895 2.71971 -4.57551
697 1 1.12004 6.29644 4.16407 -4.5179
698 1 1.23139 8.97533 7.28285 -4.50934
699 1 4.13819 6.60573 7.31985 -4.5362
700 1 3.79567 8.92832 4.23241 -4.52088
701 1 5.12894 5.36027 2.60371 -4.52632
702 1 5.38092 7.80784 5.71966 -4.50055
703 1 8.10066 5.51776 5.70469 -4.44522
704 1 7.76011 8.09949 2.39884 -4.46513
705 1 6.61966 6.67548 4.01197 -4.45771
706 1 6.49543 9.27369 7.35908 -4.42426
707 1 9.26935 6.82132 7.33225 -4.47002
708 1 9.00507 9.02966 4.30608 -4.55047
709 1 10.2553 5.47209 2.50472 -4.39826
710 1 10.557 8.21348 5.84959 -4.37067
711 1 12.9046 5.31097 5.79135 -4.47078
712 1 12.8219 7.69552 2.80915 -4.48205
713 1 11.4831 6.61351 4.39827 -4.52349
714 1 12.2592 9.54315 8.49579 -4.49052
715 1 14.0675 6.71251 7.50484 -4.31541
716 1 14.0002 8.61022 4.70534 -4.2798
717 1 15.5047 5.09878 2.41342 -4.38048
718 1 15.3847 8.54328 6.70207 -4.71576
719 1 18.3072 3.98346 5.42072 -4.21182
720 1 18.564 7.07908 2.91482 -4.28869
721 1 16.3832 6.71705 3.92035 -4.48867
722 1 17.1828 9.70364 7.89992 -4.11856
723 1 18.3018 6.47691 5.23138 -4.22298
724 1 -16.1806 11.3188 6.28492 -3.53767
725 1 -15.5132 10.5817 2.71566 -4.48683
726 1 -15.235 12.9589 4.90615 -4.55656
727 1 -12.5735 10.1824 5.99734 -4.50321
728 1 -12.1537 12.2912 3.38475 -4.07608
729 1 -13.8697 11.1835 4.35064 -4.67712
730 1 -13.4288 14.1079 6.048 -4.0531
731 1 -11.414 11.6383 7.40699 -4.59489
732 1 -11.3397 14.2425 4.6532 -5.40383
733 1 -10.0463 10.0177 2.86676 -4.53734
734 1 -9.9616 12.6696 5.93386 -4.38124
735 1 -7.65256 10.328 5.87837 -4.58286
736 1 -7.71604 12.8929 2.53717 -4.56599
737 1 -8.83449 11.5126 4.18403 -4.49311
738 1 -8.55366 14.2612 7.03782 -4.59846
739 1 -6.2641 11.5784 7.30217 -4.52115
740 1 -6.18412 14.1372 3.74419 -4.60275
741 1 -5.22147 10.2037 2.88965 -4.53301
742 1 -5.2962 12.9861 5.61321 -4.49174