ITEM: TIMESTEP
262000
ITEM: NUMBER OF ATOMS
4050
ITEM: BOX BOUNDS ss ss pp
-2.0196616683697261e+01 2.0322837613983907e+01
-2.0333058466076423e+01 2.0428885502551143e+01
-3.5573050000000008e+00 5.7867305000000002e+01
ITEM: ATOMS id type x y z c_peratom
1 1 -11.7727 -15.1221 -1.04712 -3.85027
2 1 -6.9136 -18.0584 -2.65526 -4.63268
3 1 -8.662 -17.004 0.668837 -4.58322
4 1 -6.83334 -18.5532 0.576915 -3.71239
5 1 -5.69907 -16.3626 -1.60355 -4.65035
6 1 -4.76394 -18.0344 -0.36472 -4.52565
7 1 -2.74085 -18.3951 -3.41425 -4.53801
8 1 -4.80859 -19.2284 -2.59437 -4.27837
9 1 -3.67817 -16.7045 1.1885 -4.4311
10 1 -0.687673 -18.9924 1.19623 -4.37149
11 1 -1.61182 -16.6644 -2.19232 -4.5144
12 1 0.572733 -19.5792 -1.82072 -4.5875
13 1 -0.12592 -17.6614 -0.603953 -4.59728
14 1 3.36697 -17.6514 57.5649 -4.62069
15 1 2.77626 -19.2041 -2.18734 -3.7898
16 1 1.42133 -16.406 0.674375 -4.59117
17 1 3.28655 -18.9597 0.136071 -4.35768
18 1 3.83815 -16.3297 -2.04067 -4.65883
19 1 5.26854 -17.8048 -0.781377 -4.41499
20 1 6.76285 -17.9951 -2.65013 -4.25386
21 1 9.31008 -17.2762 0.154697 -4.25555
22 1 6.26046 -16.4564 0.80916 -4.45727
23 1 8.89988 -16.7493 -2.14859 -4.16006
24 1 11.3206 -16.3081 0.853341 -3.64944
25 1 -14.6875 -12.6376 -1.55087 -4.15123
26 1 -15.2403 -13.7452 0.56319 -4.26727
27 1 -13.7725 -15.565 0.0301042 -4.3664
28 1 -12.4172 -13.3535 57.5035 -4.40362
29 1 -13.7544 -14.6752 -2.35485 -4.39379
30 1 -14.0274 -11.5783 0.461669 -4.16873
31 1 -11.3611 -13.8108 0.85493 -4.93514
32 1 -11.5034 -11.5699 -2.2627 -4.38467
33 1 -9.97804 -15.56 -3.29781 -4.07492
34 1 -9.87156 -12.5993 -0.591927 -4.30161
35 1 -7.37359 -15.4009 -0.26602 -4.57287
36 1 -7.67646 -12.7106 -3.34799 -4.60284
37 1 -8.8296 -14.1363 -1.87914 -4.54744
38 1 -8.79271 -11.3118 1.14842 -4.50339
39 1 -6.10502 -14.1704 1.36229 -4.49654
40 1 -6.27267 -11.3888 -1.97089 -4.5077
41 1 -4.86733 -15.2446 -3.45968 -4.48213
42 1 -5.23652 -12.8321 -0.322041 -4.47492
43 1 -2.54245 -15.2953 -0.493406 -4.49684
44 1 -2.46322 -12.8578 57.7638 -4.51044
45 1 -3.76898 -13.8287 -1.95552 -4.57662
46 1 -3.73509 -11.5918 1.08896 -4.60372
47 1 -1.11922 -13.7971 0.868183 -4.5346
48 1 -1.3449 -11.5401 -2.04838 -4.56797
49 1 -0.00181049 -15.7248 57.7545 -4.5009
50 1 0.310105 -12.5639 -0.683666 -4.47249
51 1 2.61362 -14.926 -0.628893 -4.47761
52 1 2.51184 -12.8073 57.7854 -4.57067
53 1 1.01671 -14.1361 -2.30464 -4.47913
54 1 1.37702 -11.2465 1.0681 -4.48614
55 1 3.9957 -14.0723 1.18382 -4.51281
56 1 3.64756 -11.6805 -1.88988 -4.49349
57 1 5.21078 -15.0089 -3.51781 -4.62063
58 1 5.20892 -12.8267 -0.388979 -4.46872
59 1 7.85584 -15.3276 -0.449378 -4.96393
60 1 7.88059 -12.6838 57.8081 -4.50065
61 1 6.61885 -13.8677 -2.01038 -4.37318
62 1 6.25692 -11.3787 0.94597 -4.49448
63 1 8.81903 -13.8685 1.21519 -4.43758
64 1 8.69886 -11.0665 -2.04458 -4.42536
65 1 10.2224 -15.2676 -3.32988 -4.3941
66 1 9.62828 -12.1638 -0.157137 -4.42496
67 1 12.4836 -14.8105 -0.624381 -4.68203
68 1 12.3701 -12.2917 -2.71278 -4.25474
69 1 10.7511 -13.5875 -1.65227 -4.67403
70 1 11.2858 -11.3257 1.34975 -4.60763
71 1 14.1185 -13.2258 0.0697222 -3.95513
72 1 14.0262 -11.2495 -1.23371 -5.39454
73 1 15.9844 -12.773 -1.36088 -3.98873
74 1 16.0469 -10.5596 -0.220957 -4.01266
75 1 -17.4545 -7.54831 56.9301 -4.05794
76 1 -18.7714 -6.08452 2.17536 -4.06301
77 1 -16.4825 -8.82864 1.52525 -3.64362
78 1 -16.7127 -6.58409 -2.11189 -4.25857
79 1 -15.2105 -10.7055 -3.2258 -4.21211
80 1 -15.4351 -7.78318 -0.406487 -4.49949
81 1 -12.5623 -10.1481 -0.61215 -4.50276
82 1 -12.9033 -7.6929 57.8528 -4.56263
83 1 -14.1334 -9.04028 -1.93967 -4.61604
84 1 -14.042 -6.52995 0.938878 -4.46375
85 1 -11.3611 -8.81568 0.964594 -4.52426
86 1 -11.5798 -6.40411 -1.99329 -4.59027
87 1 -10.1608 -10.103 57.8273 -4.61722
88 1 -10.0602 -7.60616 -0.613129 -4.5451
89 1 -7.6323 -9.92 -0.485799 -4.51203
90 1 -7.80286 -7.40705 57.6967 -4.56096
91 1 -8.84921 -8.78593 -2.16264 -4.49067
92 1 -8.88618 -6.2839 1.00578 -4.51953
93 1 -6.20653 -8.8408 1.04836 -4.51835
94 1 -6.39272 -6.31293 -2.29742 -4.51868
95 1 -5.25086 -10.2215 57.7371 -4.51504
96 1 -5.22163 -7.52181 -0.550016 -4.4885
97 1 -2.58091 -10.2552 -0.488334 -4.47824
98 1 -2.77367 -7.57016 57.7502 -4.5635
99 1 -3.90402 -8.97412 -2.10344 -4.49766
100 1 -3.85615 -6.24011 0.960205 -4.5208
101 1 -1.36481 -9.06526 1.171 -4.54969
102 1 -1.21346 -6.52405 -2.22232 -4.56071
103 1 -0.165057 -10.3099 57.7557 -4.55767
104 1 -0.0821357 -7.77265 -0.523544 -4.47972
105 1 2.63859 -9.96638 -0.511873 -4.53073
106 1 2.4217 -7.79073 -3.4138 -4.50626
107 1 1.12116 -9.10412 -2.02916 -4.53398
108 1 1.01487 -6.3277 1.08817 -4.53166
109 1 3.79038 -8.62852 1.04439 -4.53107
110 1 3.44088 -6.33393 -1.96625 -4.54875
111 1 5.05341 -10.3877 -3.4353 -4.52417
112 1 5.04756 -7.43844 -0.561555 -4.52649
113 1 7.55017 -9.77893 -0.312657 -4.46877
114 1 7.73886 -7.63898 57.8661 -4.55192
115 1 6.35764 -8.86673 -2.10969 -4.52208
116 1 6.20637 -6.24601 1.14655 -4.51188
117 1 9.02792 -8.64237 1.27135 -4.4711
118 1 8.79157 -6.08291 -2.04421 -4.44216
119 1 10.3076 -10.0591 -3.47756 -4.34322
120 1 9.94409 -7.33508 -0.561136 -4.42227
121 1 12.5461 -9.81153 -0.052797 -4.3589
122 1 12.4397 -7.41294 -3.48721 -4.48918
123 1 11.3165 -8.71472 -1.82755 -4.50543
124 1 11.2997 -6.14418 1.12939 -4.44093
125 1 13.9399 -8.49157 1.2124 -4.6177
126 1 13.731 -6.30232 -1.92268 -4.65708
127 1 14.7388 -10.1992 -3.36657 -4.34507
128 1 15.231 -7.50793 -0.532464 -4.6565
129 1 16.8464 -7.06589 -3.43556 -4.44677
130 1 16.3142 -8.95911 -2.01898 -4.41343
131 1 16.446 -5.69633 0.297603 -4.56066
132 1 18.4441 -5.39999 -3.27958 -3.791
133 1 -18.2434 -5.55211 -0.605403 -3.86354
134 1 -18.0251 -2.53183 -3.40729 -4.95518
135 1 -19.0969 -3.39056 -1.48522 -4.17395
136 1 -17.8672 -2.28684 0.201512 -4.57054
137 1 -16.8336 -5.16153 1.23899 -4.54339
138 1 -16.3991 -1.08571 -2.31428 -4.58119
139 1 -15.5448 -5.12639 -3.45982 -4.58047
140 1 -15.5686 -2.39143 -0.538509 -4.43035
141 1 -13.0008 -5.11693 -0.715915 -4.53414
142 1 -12.8157 -2.57937 57.8242 -4.51458
143 1 -14.3559 -3.63591 -2.03631 -4.48487
144 1 -13.9151 -1.40761 0.963893 -4.50887
145 1 -11.5529 -4.03519 0.850979 -4.43908
146 1 -11.5197 -1.23967 -2.11123 -4.51912
147 1 -10.3811 -5.04127 -3.48239 -4.55171
148 1 -10.4772 -2.63296 -0.527681 -4.53044
149 1 -7.67659 -5.1678 -0.70856 -4.54901
150 1 -7.62219 -2.48618 -3.42064 -4.5485
151 1 -8.99198 -3.81194 -2.02402 -4.60999
152 1 -8.97104 -1.51328 0.984134 -4.5183
153 1 -6.35918 -3.7625 0.821643 -4.42862
154 1 -6.53053 -0.948355 -2.0385 -4.54834
155 1 -4.9798 -4.87862 57.7756 -4.56334
156 1 -5.14125 -2.3525 -0.63811 -4.58516
157 1 -2.54619 -5.19503 -0.724581 -4.55084
158 1 -2.43642 -2.71 57.7404 -4.4989
159 1 -3.75626 -3.63981 -2.02131 -4.53929
160 1 -3.96244 -1.08118 0.93781 -4.57448
161 1 -1.49186 -3.8036 0.890742 -4.55328
162 1 -1.50168 -1.18453 -2.089 -4.49968
163 1 0.0974518 -5.18209 57.8071 -4.47988
164 1 -0.232756 -2.39217 -0.487593 -4.59782
165 1 2.24885 -5.04849 -0.311416 -4.5266
166 1 2.4641 -2.28441 -3.52299 -4.55326
167 1 1.2113 -3.54882 -1.95584 -4.45993
168 1 1.23921 -1.19507 0.828623 -4.51302
169 1 3.75035 -3.71504 1.02853 -4.5462
170 1 3.76493 -0.910143 -2.08578 -4.58321
171 1 4.98108 -5.09871 -3.32642 -4.53211
172 1 4.95823 -2.24431 -0.506389 -4.56608
173 1 7.63112 -4.87414 -0.293963 -4.52865
174 1 7.6732 -2.47271 -3.39364 -4.53435
175 1 6.195 -3.71232 -1.92732 -4.55389
176 1 6.26819 -1.09468 1.08495 -4.55388
177 1 9.03103 -3.66517 1.22967 -4.51162
178 1 8.80421 -0.948995 -2.07269 -4.48318
179 1 9.96596 -4.85158 57.8627 -4.47573
180 1 9.98187 -2.27387 -0.347483 -4.46233
181 1 12.6458 -4.98713 -0.439462 -4.53111
182 1 12.4701 -2.6009 -3.36979 -4.50693
183 1 11.1472 -3.74245 -1.86008 -4.52883
184 1 11.6055 -1.48614 1.29517 -4.37613
185 1 14.6356 -4.35927 0.636611 -4.28178
186 1 13.4838 -1.18429 -1.68262 -4.5003
187 1 15.24 -5.15167 -3.3742 -4.54123
188 1 15.1092 -2.45905 -0.474339 -4.5402
189 1 17.9391 -4.35085 -1.13132 -4.59505
190 1 17.7142 -2.26109 57.5702 -4.73349
191 1 16.2825 -3.33267 -2.33208 -4.70227
192 1 16.308 -1.56396 1.4269 -4.3253
193 1 18.8518 -2.3072 -0.37952 -4.15335
194 1 18.6445 -0.728151 -2.30127 -3.71021
195 1 -19.6606 -1.18688 -2.47073 -4.33882
196 1 -18.5912 -0.101205 0.756775 -4.38753
197 1 -18.1559 2.23996 -3.30503 -4.21147
198 1 -18.1199 0.319729 -1.56534 -4.4237
199 1 -18.1452 4.23968 2.01088 -4.4086
200 1 -16.6742 1.16554 1.34654 -4.52731
201 1 -16.9734 3.4222 -1.56564 -4.41581
202 1 -15.1126 0.0270264 57.4902 -4.54633
203 1 -15.472 2.01294 -0.410608 -4.4497
204 1 -12.711 -0.0398062 -0.536509 -4.55419
205 1 -12.7358 2.43381 57.8396 -4.56721
206 1 -14.0933 1.12836 -2.10242 -4.46693
207 1 -14.1866 3.70159 0.805824 -4.59565
208 1 -11.4046 1.3466 0.9315 -4.54757
209 1 -11.7021 3.96018 -2.15415 -4.56015
210 1 -10.2401 0.0415709 57.7898 -4.61143
211 1 -10.2599 2.62873 -0.780103 -4.54191
212 1 -8.07052 0.0435048 -0.549933 -4.52913
213 1 -7.59811 2.74433 57.7331 -4.58113
214 1 -8.88479 1.40535 -2.30567 -4.54344
215 1 -9.11243 3.66489 0.972808 -4.53372
216 1 -6.64167 1.31307 0.8901 -4.54317
217 1 -6.39511 4.08221 -2.16298 -4.49182
218 1 -5.16701 -0.119918 57.755 -4.45036
219 1 -5.32373 2.62193 -0.627614 -4.5511
220 1 -2.57714 0.153352 -0.526024 -4.51387
221 1 -2.67214 2.56075 -3.41756 -4.54973
222 1 -3.98304 1.21761 -2.01116 -4.55853
223 1 -4.07582 3.79092 0.984246 -4.52024
224 1 -1.28076 1.33514 0.980556 -4.53282
225 1 -1.35569 4.04064 -2.01109 -4.55316
226 1 -0.171071 0.0634668 57.681 -4.51199
227 1 -0.153417 2.70743 -0.547699 -4.55651
228 1 2.3534 0.231765 -0.530276 -4.51347
229 1 2.45793 2.79296 -3.5129 -4.54641
230 1 1.01862 1.37678 -2.15516 -4.53482
231 1 1.10101 3.90287 1.08342 -4.53335
232 1 3.6719 1.39244 1.03279 -4.54615
233 1 3.84697 3.99034 -2.03378 -4.54634
234 1 5.19002 0.248131 -3.50845 -4.54756
235 1 5.01085 2.75866 -0.425794 -4.5702
236 1 7.58827 0.191456 -0.39077 -4.50649
237 1 7.39783 2.80893 57.6917 -4.54448
238 1 6.32328 1.51501 -1.96736 -4.50822
239 1 6.56155 3.88997 0.941053 -4.54161
240 1 9.10625 1.33703 1.16051 -4.52237
241 1 8.82617 4.03748 -2.20141 -4.45114
242 1 10.1411 0.334353 -3.56194 -4.55686
243 1 10.0325 2.81936 -0.443206 -4.5185
244 1 12.3841 0.270455 -0.0881428 -4.48828
245 1 12.5437 2.9587 -3.44118 -4.34199
246 1 11.3929 1.50315 -1.89184 -4.50529
247 1 11.5911 4.07868 1.0404 -4.46627
248 1 13.8287 1.57437 1.3626 -4.46225
249 1 14.122 4.52107 -2.08032 -4.84329
250 1 14.7622 0.172523 -3.1321 -4.53314
251 1 14.6897 2.643 -0.581871 -4.18524
252 1 17.3737 -0.351763 -0.240248 -4.82008
253 1 17.3071 1.92596 57.6283 -4.37525
254 1 16.389 1.34736 -1.78331 -4.34378
255 1 16.2087 3.95862 0.674108 -4.88168
256 1 18.9342 0.97051 1.29706 -4.25201
257 1 18.8019 3.62061 -3.42498 -4.32354
258 1 19.558 1.37923 57.3221 -3.8799
259 1 -17.9071 5.15487 -0.197998 -3.87314
260 1 -17.4358 7.91886 56.9405 -4.38616
261 1 -18.0557 6.27278 -2.93007 -3.93092
262 1 -16.6586 6.88609 0.945672 -4.6682
263 1 -16.7231 8.87725 -2.43893 -3.80475
264 1 -15.9853 4.85377 -3.35695 -5.32108
265 1 -15.3803 7.99323 -0.828403 -4.53766
266 1 -12.8776 5.19499 -0.425856 -4.54365
267 1 -12.9473 7.55724 57.8255 -4.541
268 1 -14.3256 6.27728 -2.0802 -4.32075
269 1 -14.1082 8.98462 0.908745 -4.43959
270 1 -11.5999 6.60428 1.0322 -4.54235
271 1 -11.5806 8.95894 -2.22233 -4.55113
272 1 -10.2245 5.2493 57.8032 -4.55268
273 1 -10.3962 7.70074 -0.668951 -4.52821
274 1 -7.66433 5.12493 -0.392369 -4.52009
275 1 -7.92403 7.78919 57.8689 -4.55122
276 1 -9.0455 6.35519 -1.91667 -4.50338
277 1 -9.00469 8.84978 0.855922 -4.52422
278 1 -6.49444 6.48366 1.16563 -4.51677
279 1 -6.49802 9.05455 -2.21592 -4.5414
280 1 -5.22271 5.29839 57.7402 -4.54526
281 1 -5.47933 7.67655 -0.518783 -4.44365
282 1 -2.785 5.12774 -0.519183 -4.53273
283 1 -2.68711 7.78079 -3.50295 -4.54649
284 1 -3.9821 6.50976 -2.07567 -4.5531
285 1 -4.122 8.79926 0.975303 -4.56308
286 1 -1.48648 6.436 0.83382 -4.48746
287 1 -1.20691 8.96161 -2.10212 -4.52231
288 1 0.0285842 5.1132 57.7664 -4.51664
289 1 0.0725132 7.73138 -0.431944 -4.56381
290 1 2.39244 5.13801 -0.546514 -4.5667
291 1 2.5659 7.74151 57.8051 -4.53479
292 1 1.21007 6.42784 -2.08954 -4.55349
293 1 1.46539 9.10759 0.808269 -4.53363
294 1 3.91045 6.44648 0.900158 -4.58985
295 1 3.91677 9.05332 -2.12605 -4.54313
296 1 5.02113 5.36663 -3.48328 -4.4455
297 1 5.20417 8.03376 -0.374277 -4.51236
298 1 7.62479 5.41323 -0.586623 -4.53848
299 1 7.43493 7.66844 57.6664 -4.45301
300 1 6.24544 6.63579 -1.96769 -4.4942
301 1 6.63407 9.52278 1.02847 -4.40447
302 1 9.0139 6.79072 0.900495 -4.4655
303 1 8.46857 9.16142 -2.26149 -4.59055
304 1 10.0074 5.09173 57.4985 -4.4438
305 1 10.1232 8.13076 -0.84528 -4.3498
306 1 12.5354 5.60388 -0.55678 -4.31276
307 1 12.0761 7.83472 57.4801 -4.49953
308 1 11.0111 6.5261 -2.29647 -4.47037
309 1 11.8157 9.41274 1.59417 -4.4617
310 1 13.9419 6.5569 1.12051 -4.58585
311 1 13.6489 8.45311 -2.40483 -4.28827
312 1 14.7112 5.12848 57.1201 -4.38978
313 1 15.5913 7.70342 0.117225 -4.09709
314 1 17.7634 4.42817 -1.1809 -3.94578
315 1 16.6872 6.31489 57.3843 -4.55094
316 1 16.086 6.16215 -1.56868 -4.20248
317 1 16.2729 8.51586 2.1993 -4.36887
318 1 18.3438 4.99314 1.09493 -4.06171
319 1 -15.9901 12.5901 2.38539 -4.11744
320 1 -15.1635 10.4947 -3.36993 -4.64433
321 1 -15.1685 12.8245 0.0521538 -4.10596
322 1 -12.7133 10.1904 -0.547226 -4.60347
323 1 -12.8532 13.1103 -3.25892 -4.92061
324 1 -13.9604 11.7844 -1.69167 -4.29275
325 1 -14.0892 14.0202 1.82568 -4.94613
326 1 -11.2821 11.39 0.883914 -4.44653
327 1 -12.0134 14.5369 -1.5231 -4.3425
328 1 -10.3076 10.4553 -3.54344 -4.62853
329 1 -10.6521 12.7465 -0.818441 -4.44343
330 1 -7.84505 10.3305 -0.635498 -4.55439
331 1 -7.86441 12.7827 57.2444 -4.45891
332 1 -8.95029 11.8549 -2.18661 -4.45272
333 1 -9.4855 13.952 0.75221 -4.48333
334 1 -6.49964 11.5057 0.799464 -4.56442
335 1 -6.71434 14.1245 -2.6205 -4.5273
336 1 -5.28996 10.3295 57.6245 -4.55682
337 1 -5.52475 12.8874 -0.908707 -4.47644
338 1 -2.7724 10.1167 -0.646353 -4.51153
339 1 -2.90127 12.853 57.6379 -4.55178
340 1 -4.02666 11.5664 -2.1682 -4.58111
341 1 -4.14736 13.8809 0.785743 -4.44625
342 1 -1.55238 11.4444 0.953823 -4.59586
343 1 -1.5773 13.9328 -2.15245 -4.55337
344 1 -0.0739622 10.1104 57.703 -4.49578
345 1 -0.24953 12.7126 -0.570751 -4.54021
346 1 2.54986 10.5141 -0.789291 -4.55457
347 1 2.32588 12.6576 57.6278 -4.53251
348 1 1.0231 11.5292 -2.1494 -4.50421
349 1 0.962095 13.9504 0.92509 -4.55897
350 1 3.82341 11.7323 0.764973 -4.53682
351 1 3.57299 14.0945 -2.2967 -4.42503
352 1 5.04914 10.3246 57.6521 -4.47156
353 1 5.1063 13.1777 -0.562042 -4.359
354 1 7.59043 10.9052 -0.879355 -4.28887
355 1 7.20016 13.0558 57.333 -4.42832
356 1 6.11146 11.8852 -2.32055 -4.51246
357 1 6.08911 14.4826 1.26645 -4.53134
358 1 9.22533 12.2623 1.44946 -4.39876
359 1 8.59485 14.2259 -2.53451 -4.79304
360 1 9.56885 10.3121 57.5246 -4.35476
361 1 9.44407 12.5045 -0.972234 -4.71837
362 1 12.0213 9.69926 -0.874193 -4.80304
363 1 12.3387 12.4705 57.0811 -4.17394
364 1 11.1194 11.4195 -2.39424 -4.69671
365 1 10.7795 13.9369 1.79378 -4.55288
366 1 13.499 10.9044 2.14058 -4.46875
367 1 12.8714 12.9901 -1.90624 -4.23051
368 1 14.728 9.93588 57.4757 -4.19218
369 1 13.604 11.2416 -0.34281 -4.37737
370 1 15.2133 9.95629 -1.52868 -4.06862
371 1 -14.0089 14.864 -0.397045 -3.80548
372 1 -12.8424 16.0857 2.02418 -3.80052
373 1 -9.68558 15.441 57.4197 -4.39317
374 1 -8.17396 15.0545 -0.927405 -4.46418
375 1 -8.61853 17.6083 57.1604 -4.43365
376 1 -9.39695 16.8589 -2.09264 -4.43583
377 1 -6.79918 15.8791 0.690869 -4.69637
378 1 -7.46479 18.188 -2.09436 -3.53746
379 1 -5.33052 15.6496 57.6875 -4.54924
380 1 -5.65197 17.6294 -0.608947 -4.66637
381 1 -2.93321 15.1758 -0.761853 -4.54465
382 1 -2.58195 17.9812 57.7969 -4.52703
383 1 -4.00063 16.7064 -2.11451 -4.47879
384 1 -5.24308 18.7283 1.44974 -3.90231
385 1 -1.9685 16.452 0.989204 -4.54261
386 1 -1.13099 18.935 -2.03157 -3.81893
387 1 -0.106965 15.101 57.7869 -4.45585
388 1 -0.435361 17.7636 -0.127289 -4.63783
389 1 2.21038 15.2323 -0.65755 -4.52742
390 1 2.3013 17.78 -2.59108 -4.46062
391 1 0.61112 16.4544 -1.85328 -4.63356
392 1 0.785177 19.4136 1.02967 -4.50278
393 1 3.0737 16.6407 1.08644 -4.58301
394 1 2.48323 19.4349 -0.808891 -4.32507
395 1 4.3096 15.7131 57.5176 -4.29279
396 1 4.31888 18.0172 -0.17151 -4.34113
397 1 7.42513 16.031 -1.4745 -4.40609
398 1 8.71614 17.4193 -2.69039 -4.41881
399 1 5.46485 16.9573 -2.40767 -4.33483
400 1 5.03102 19.0069 1.85529 -3.7828
401 1 7.87505 16.1689 0.977341 -4.38717
402 1 9.76938 15.0263 57.027 -4.30287
403 1 11.1187 14.1836 -0.63661 -4.2961
404 1 10.4438 15.8476 -2.26795 -4.22578
405 1 1.02914 19.788 -2.65343 -4.41188
406 1 -12.267 -15.8246 2.00884 -4.22277
407 1 -7.61565 -17.687 2.57226 -3.71311
408 1 -8.91296 -16.2027 7.06403 -3.6487
409 1 -6.19394 -18.4328 7.95579 -4.05113
410 1 -6.21607 -16.7105 4.14645 -4.58947
411 1 -5.05211 -17.7178 5.87911 -4.31875
412 1 -2.29832 -18.008 2.62694 -4.55471
413 1 -3.20377 -18.8273 4.72513 -3.69733
414 1 -3.15978 -16.7796 7.02841 -5.0674
415 1 -1.55163 -18.4531 6.41183 -4.02315
416 1 -0.985301 -16.3746 3.70169 -4.68679
417 1 1.27105 -20.3237 0.508702 -4.07126
418 1 0.207496 -17.9348 4.9784 -4.37336
419 1 2.64909 -17.782 2.11249 -4.49284
420 1 0.967032 -19.2579 2.80189 -4.20818
421 1 1.19997 -16.4894 6.72912 -4.43908
422 1 4.27709 -19.0627 7.75127 -4.39949
423 1 3.80463 -16.9078 3.99379 -4.38674
424 1 5.15053 -17.8488 5.7623 -4.43359
425 1 7.69613 -17.7511 2.02971 -4.30647
426 1 7.04758 -18.1527 4.29809 -3.40016
427 1 6.27761 -16.2934 7.11104 -4.41644
428 1 8.83243 -16.6489 4.02365 -4.34141
429 1 12.7103 -14.7532 8.38569 -4.45276
430 1 -17.1549 -9.82934 4.69122 -4.25006
431 1 -16.0552 -11.9612 4.46673 -4.14954
432 1 -13.0619 -14.5217 3.82078 -4.1161
433 1 -12.8304 -12.575 2.40381 -4.79465
434 1 -14.9827 -13.5154 2.88759 -4.17145
435 1 -14.3493 -11.6204 6.08965 -4.91485
436 1 -11.8839 -14.1312 6.16091 -4.36667
437 1 -11.381 -11.3405 3.89655 -4.4556
438 1 -9.83838 -15.3107 2.02226 -4.13974
439 1 -10.2142 -12.5757 5.43177 -4.57129
440 1 -7.64162 -15.2266 5.37086 -4.67204
441 1 -7.42798 -12.5832 2.58218 -4.61159
442 1 -8.90867 -13.9064 3.82391 -4.51914
443 1 -9.00986 -11.2471 7.16687 -4.46536
444 1 -6.41789 -14.0415 6.96368 -4.57463
445 1 -6.36426 -11.3279 4.28085 -4.54539
446 1 -4.80988 -15.4505 2.78705 -4.52785
447 1 -5.04482 -12.5903 5.73409 -4.59703
448 1 -2.09431 -15.2775 5.51052 -4.44178
449 1 -2.47462 -12.8892 2.5657 -4.4864
450 1 -3.74654 -14.0983 4.33759 -4.51161
451 1 -3.87143 -11.3006 7.37128 -4.53807
452 1 -1.20486 -13.6309 7.04609 -4.5419
453 1 -1.44262 -11.3759 3.91759 -4.53129
454 1 0.317805 -15.0151 2.32934 -4.53971
455 1 0.0736032 -12.5385 5.38599 -4.57125
456 1 2.77038 -15.2497 5.44497 -4.56994
457 1 2.62599 -12.6501 2.52752 -4.61542
458 1 1.38951 -13.9699 4.0713 -4.53963
459 1 1.33628 -11.2238 6.97909 -4.5139
460 1 3.82201 -13.8739 7.00845 -4.53263
461 1 3.92953 -11.3933 3.97302 -4.56422
462 1 5.163 -15.4806 2.65838 -4.49619
463 1 5.1911 -12.4884 5.62466 -4.56601
464 1 7.77552 -15.098 5.599 -4.47371
465 1 7.50087 -12.5178 2.64139 -4.57957
466 1 6.33102 -14.0166 4.13487 -4.57509
467 1 6.26975 -11.0725 7.18163 -4.54241
468 1 8.95683 -13.6882 7.13347 -4.47195
469 1 8.70653 -11.2284 4.25979 -4.58086
470 1 10.1774 -15.1914 2.67552 -4.54527
471 1 10.2598 -12.5722 5.51353 -4.62427
472 1 12.9414 -14.6715 5.94869 -3.72827
473 1 12.9759 -12.7068 2.3919 -4.36685
474 1 11.663 -13.8763 4.0491 -4.52379
475 1 11.5196 -11.0347 6.73358 -4.4838
476 1 12.9644 -12.4196 7.98725 -4.6815
477 1 14.4517 -11.4982 3.79709 -4.52074
478 1 14.6106 -13.0483 5.52827 -3.75338
479 1 15.3008 -12.305 7.70123 -4.46441
480 1 -17.8504 -7.98895 3.22564 -4.64573
481 1 -18.5444 -4.95035 8.81967 -4.33483
482 1 -16.6117 -8.92127 6.97744 -4.36695
483 1 -16.3512 -6.63795 4.38539 -4.71996
484 1 -15.3461 -10.1692 3.14273 -4.60331
485 1 -14.8742 -7.77322 5.91203 -4.62911
486 1 -12.5688 -10.1185 5.58662 -4.4161
487 1 -12.5923 -7.44858 2.48943 -4.48239
488 1 -13.7655 -8.73939 4.10694 -4.60712
489 1 -13.7827 -6.30469 7.43886 -4.52554
490 1 -11.5217 -8.78546 7.3493 -4.31261
491 1 -11.4282 -6.08521 4.04538 -4.50976
492 1 -10.0115 -9.94948 2.59249 -4.59015
493 1 -10.4184 -7.45211 5.66406 -4.44013
494 1 -7.71479 -9.9973 5.63263 -4.53131
495 1 -7.47159 -7.41623 2.42925 -4.55325
496 1 -8.86053 -8.56984 4.05921 -4.50555
497 1 -8.94759 -6.36987 7.17593 -4.55444
498 1 -6.54936 -8.82978 7.26751 -4.52898
499 1 -6.23435 -6.3011 4.14827 -4.52937
500 1 -4.99795 -10.1872 2.66819 -4.53452
501 1 -5.12668 -7.83421 5.63602 -4.53089
502 1 -2.5503 -10.3674 5.71908 -4.42684
503 1 -2.6277 -7.63823 2.52297 -4.53098
504 1 -3.61727 -9.0449 4.1359 -4.53705
505 1 -3.72222 -6.56718 7.10349 -4.58337
506 1 -1.34173 -8.96137 7.15017 -4.5251
507 1 -1.37542 -6.26397 4.04453 -4.57635
508 1 0.140986 -10.1011 2.67489 -4.53844
509 1 -0.261962 -7.5031 5.71593 -4.51451
510 1 2.57992 -9.91256 5.46136 -4.53752
511 1 2.52207 -7.4295 2.57349 -4.53922
512 1 1.13745 -8.60633 4.1207 -4.57331
513 1 1.14487 -6.08573 7.06603 -4.54087
514 1 3.73683 -8.66758 7.18171 -4.53222
515 1 3.76421 -6.1627 4.08929 -4.54507
516 1 5.17246 -9.98812 2.52053 -4.54911
517 1 5.02436 -7.31475 5.65252 -4.51354
518 1 7.53686 -9.72044 5.66957 -4.61411
519 1 7.72691 -7.27359 2.72023 -4.55598
520 1 6.20315 -8.59911 4.10225 -4.53533
521 1 6.19498 -6.23478 7.39519 -4.51275
522 1 8.97486 -8.55266 7.16474 -4.5686
523 1 9.07641 -6.24391 4.25734 -4.52292
524 1 10.0622 -9.9516 2.859 -4.55915
525 1 10.4758 -7.38012 5.73612 -4.47644
526 1 13.0749 -10.0339 5.27632 -4.49542
527 1 12.9034 -7.02004 2.75957 -4.4496
528 1 11.5868 -8.56427 3.89491 -4.54117
529 1 11.491 -6.29205 7.53243 -4.56329
530 1 14.1967 -8.88725 7.04534 -4.53398
531 1 13.9356 -6.06488 4.72323 -4.43894
532 1 15.473 -9.94003 2.19187 -4.36958
533 1 15.5105 -7.33963 5.89629 -4.68556
534 1 16.4866 -6.03332 2.60735 -4.47468
535 1 16.14 -8.1615 3.79442 -3.48282
536 1 16.6056 -6.24646 7.69266 -4.04119
537 1 18.0846 -4.48167 3.49518 -4.27488
538 1 -17.9405 -5.36394 5.60875 -4.51241
539 1 -17.1879 -3.12048 2.42035 -4.27436
540 1 -18.8369 -4.20812 3.59037 -4.47204
541 1 -19.3162 -2.19967 4.80825 -4.02015
542 1 -16.3985 -3.91376 6.67712 -4.57409
543 1 -17.0871 -1.3883 4.09476 -5.27608
544 1 -15.1008 -5.54733 2.77552 -4.39102
545 1 -15.2945 -2.21716 5.39842 -4.27455
546 1 -12.8014 -5.05862 5.70941 -4.5117
547 1 -12.6772 -2.69447 2.55879 -4.53251
548 1 -14.1245 -3.75428 4.05486 -4.50932
549 1 -13.9259 -1.41266 7.13868 -4.40397
550 1 -11.346 -3.81048 7.02092 -4.53741
551 1 -11.5769 -1.20786 4.03248 -4.55205
552 1 -10.1028 -4.80302 2.49549 -4.47173
553 1 -10.1342 -2.45979 5.51955 -4.54636
554 1 -7.73775 -5.02499 5.62442 -4.5347
555 1 -7.30066 -2.50474 2.42915 -4.39412
556 1 -8.6812 -3.56906 4.03869 -4.51493
557 1 -8.95095 -1.08187 7.18613 -4.54353
558 1 -6.23265 -3.67771 7.07238 -4.53946
559 1 -6.42692 -1.17529 4.13821 -4.47161
560 1 -5.14194 -4.91197 2.53783 -4.50017
561 1 -4.99447 -2.39855 5.50705 -4.55528
562 1 -2.61311 -5.11627 5.61899 -4.53837
563 1 -2.73802 -2.3618 2.39599 -4.52479
564 1 -3.80641 -3.74255 4.07362 -4.52692
565 1 -3.73573 -1.22029 7.00881 -4.52701
566 1 -1.20374 -3.69556 6.98162 -4.51702
567 1 -1.33467 -1.04582 3.86287 -4.54298
568 1 -0.181526 -4.87103 2.57734 -4.53093
569 1 -0.113435 -2.18412 5.50088 -4.50678
570 1 2.48121 -4.89133 5.5331 -4.574
571 1 2.30241 -2.43439 2.50758 -4.51459
572 1 1.06275 -3.60128 4.1417 -4.56435
573 1 1.24881 -1.21057 7.14382 -4.53286
574 1 3.81387 -3.55526 7.02134 -4.48522
575 1 3.53852 -1.193 4.08605 -4.44839
576 1 4.98142 -4.80315 2.66054 -4.54358
577 1 4.98217 -2.15962 5.60203 -4.48877
578 1 7.54816 -5.02421 5.67952 -4.48281
579 1 7.47092 -2.45677 2.5957 -4.55322
580 1 6.22934 -3.46486 4.27202 -4.47135
581 1 6.37652 -1.04917 7.18305 -4.53661
582 1 8.73112 -3.72068 7.31851 -4.57968
583 1 8.90534 -1.09911 4.04104 -4.55201
584 1 10.333 -4.89126 2.89546 -4.47484
585 1 9.98627 -2.23841 5.94867 -4.53604
586 1 12.6925 -4.6919 6.17824 -4.62142
587 1 12.9511 -2.79946 2.88842 -4.24591
588 1 11.4828 -3.53709 4.50106 -4.55159
589 1 11.482 -1.00683 7.34851 -4.56666
590 1 14.0567 -3.39011 7.71643 -4.5551
591 1 13.8267 -1.19201 4.38336 -4.54214
592 1 14.9049 -4.34613 3.3629 -4.80694
593 1 15.0924 -2.11572 6.09443 -4.46277
594 1 17.599 -4.91859 6.02201 -3.45822
595 1 18.3855 -2.53613 2.01666 -4.27018
596 1 16.4986 -3.30886 4.70316 -4.4262
597 1 16.4705 -0.441539 7.14972 -4.38839
598 1 18.6311 -0.924564 7.98518 -4.31213
599 1 18.7148 -0.366833 3.20205 -4.28246
600 1 -19.0928 -0.391754 3.16476 -4.03483
601 1 -17.5108 0.083501 6.03571 -4.4427
602 1 -17.2576 2.43976 3.22715 -4.6182
603 1 -18.8732 1.55363 4.63895 -4.523
604 1 -18.2073 3.21369 6.28835 -4.4912
605 1 -16.1049 1.2097 7.48579 -4.55971
606 1 -16.4661 3.94012 4.89136 -4.51089
607 1 -15.2731 -0.38808 2.62113 -4.33589
608 1 -15.026 2.28108 5.76135 -4.44116
609 1 -12.7002 0.056157 5.61746 -4.50032
610 1 -12.7568 2.51974 2.37637 -4.5384
611 1 -13.9942 1.10835 3.91086 -4.49132
612 1 -13.7314 3.64309 6.97738 -4.56567
613 1 -11.393 1.31353 7.10939 -4.51677
614 1 -11.6293 3.91513 3.96094 -4.55243
615 1 -10.1379 0.00805347 2.45336 -4.51578
616 1 -10.3338 2.82623 5.65593 -4.52144
617 1 -7.71116 0.182861 5.57805 -4.50479
618 1 -7.88695 2.40345 2.55333 -4.46826
619 1 -9.09752 1.37341 4.22715 -4.4803
620 1 -8.75113 3.9863 6.94132 -4.4718
621 1 -6.40822 1.24412 7.2797 -4.54261
622 1 -6.534 3.68154 4.15079 -4.51492
623 1 -5.34279 0.0469252 2.47633 -4.50325
624 1 -5.24003 2.48044 5.77042 -4.51992
625 1 -2.53976 0.225711 5.48522 -4.5182
626 1 -2.62411 2.50151 2.55775 -4.4965
627 1 -4.12558 1.24176 4.08533 -4.49639
628 1 -3.8359 3.88275 7.19965 -4.52799
629 1 -1.196 1.17741 7.16121 -4.5309
630 1 -1.44677 3.78953 4.09515 -4.55622
631 1 0.162293 0.157459 2.39374 -4.55341
632 1 0.0179837 2.61557 5.62196 -4.54745
633 1 2.68682 0.110767 5.699 -4.47159
634 1 2.61965 2.8174 2.63816 -4.55757
635 1 1.41717 1.26203 4.10014 -4.5249
636 1 1.18291 4.04084 7.14485 -4.55189
637 1 3.84218 1.54621 7.09112 -4.52517
638 1 3.77966 4.32962 4.04466 -4.51286
639 1 4.90919 0.0458788 2.57469 -4.56882
640 1 5.08487 2.82145 5.48516 -4.53972
641 1 7.67209 0.245571 5.59207 -4.55109
642 1 7.63901 2.53243 2.67505 -4.54885
643 1 6.20091 1.33235 4.06686 -4.56058
644 1 6.24846 4.04153 7.09904 -4.53774
645 1 8.831 1.48038 7.20934 -4.51429
646 1 8.68667 4.18641 4.11013 -4.46295
647 1 10.4529 0.128004 2.73672 -4.54905
648 1 9.90917 2.97917 5.77929 -4.52626
649 1 12.7576 0.330934 5.79251 -4.50594
650 1 12.4727 2.89276 2.92346 -4.48375
651 1 11.3798 1.59138 4.42426 -4.495
652 1 11.0892 4.0886 7.36843 -4.50099
653 1 13.7809 1.55037 7.52758 -4.52749
654 1 13.8124 4.11739 4.33542 -4.52977
655 1 14.9258 -0.0553456 2.71729 -4.49515
656 1 15.0297 2.76379 5.91557 -4.49557
657 1 17.5872 0.2918 5.10405 -4.56585
658 1 17.1467 2.22913 2.14527 -4.56612
659 1 15.9888 1.56415 4.06771 -4.56778
660 1 16.6512 3.97176 7.07591 -4.37012
661 1 19.0845 1.96583 5.60935 -4.41583
662 1 18.819 3.67751 2.95936 -4.54875
663 1 19.9994 1.67248 3.42379 -4.27542
664 1 -18.72 5.44907 6.50311 -4.4184
665 1 -17.54 7.41327 3.07636 -3.56307
666 1 -18.3296 5.45289 4.03176 -4.33212
667 1 -16.6187 6.45841 6.9151 -4.69309
668 1 -16.779 9.25812 4.23 -4.60567
669 1 -15.6404 5.05875 2.07629 -4.40383
670 1 -15.2945 7.75156 5.40504 -4.54267
671 1 -12.9473 5.21883 5.42868 -4.50364
672 1 -13.0717 7.61403 2.53794 -4.53432
673 1 -14.4821 6.17154 3.88138 -4.42991
674 1 -13.9704 8.70784 7.09639 -4.56909
675 1 -11.4806 6.43417 6.94285 -4.52783
676 1 -11.3649 8.68008 3.94112 -4.52438
677 1 -10.3713 5.07629 2.42857 -4.52305
678 1 -10.0588 7.53653 5.53407 -4.52066
679 1 -7.24805 5.40076 5.50722 -4.44866
680 1 -7.81309 7.68283 2.56701 -4.50639
681 1 -8.82673 6.17909 4.02182 -4.51911
682 1 -8.86867 8.71336 7.22861 -4.5806
683 1 -5.94791 6.53135 7.17952 -4.42522
684 1 -6.36385 8.90627 4.15312 -4.47391
685 1 -5.31851 5.0606 2.61207 -4.55665
686 1 -4.90164 7.87577 5.6993 -4.44894
687 1 -2.71565 5.21818 5.63178 -4.53473
688 1 -2.5558 7.74881 2.46732 -4.54976
689 1 -3.99405 6.4708 4.00111 -4.52731
690 1 -3.74134 9.14715 7.2782 -4.47404
691 1 -1.35709 6.50648 7.14377 -4.50114
692 1 -1.41326 9.22881 4.0149 -4.47288
693 1 -0.221189 5.22144 2.62572 -4.52867
694 1 -0.152546 7.75529 5.46031 -4.54305
695 1 2.56445 5.5119 5.734 -4.48803
696 1 2.49537 7.70649 2.42069 -4.54262
697 1 1.21435 6.48407 4.08431 -4.50827
698 1 1.15816 8.89638 7.11772 -4.5095
699 1 4.00296 6.72716 7.25493 -4.52991
700 1 3.8336 8.971 3.86081 -4.52453
701 1 5.30484 5.1948 2.41844 -4.54216
702 1 5.1845 8.07326 5.60005 -4.4041
703 1 7.56434 5.47415 5.78945 -4.49476
704 1 7.71638 8.05284 2.48234 -4.50396
705 1 6.4476 6.71087 3.97161 -4.46932
706 1 6.63266 9.33881 7.21354 -4.37034
707 1 9.0281 6.7221 7.28048 -4.41335
708 1 8.92696 9.19146 4.15529 -4.61287
709 1 10.0201 5.26591 2.34155 -4.47088
710 1 10.3161 8.07829 5.71361 -4.28422
711 1 12.2533 5.37986 5.69975 -4.44264
712 1 12.6457 7.62931 2.80176 -4.49128
713 1 10.9246 6.56834 4.02235 -4.52558
714 1 11.9677 9.41241 8.55029 -4.49072
715 1 13.7713 6.37645 7.387 -4.34829
716 1 13.5915 8.43491 4.77042 -4.28724
717 1 15.2065 5.0749 2.54974 -4.36176
718 1 15.1748 8.10724 6.5882 -4.72842
719 1 17.8853 4.11578 5.08511 -4.27982
720 1 18.1681 6.96583 2.55112 -4.22623
721 1 16.1834 6.78055 3.77188 -4.4898
722 1 16.7643 9.43889 7.84823 -4.06923
723 1 18.1536 6.54587 4.91153 -4.2735
724 1 -16.0351 10.8891 5.99539 -3.43272
725 1 -15.5016 10.1427 2.46342 -4.55974
726 1 -15.113 12.5487 4.62215 -4.64464
727 1 -12.5405 9.92579 5.62557 -4.54282
728 1 -12.4153 12.6124 2.63871 -4.23873
729 1 -13.6284 10.89 3.72375 -4.69128
730 1 -13.3385 13.7922 5.5625 -4.0493
731 1 -11.1783 11.4471 6.76325 -4.62172
732 1 -11.3519 14.0735 4.16384 -5.49164
733 1 -10.159 10.0481 2.49895 -4.52632
734 1 -9.75324 12.6292 5.34693 -4.38621
735 1 -7.58913 10.2187 5.84658 -4.4803
736 1 -7.9006 12.7688 2.13649 -4.54734
737 1 -8.59347 11.2317 3.85169 -4.47195
738 1 -8.58154 14.0653 6.75069 -4.5653
739 1 -6.27256 11.685 7.13278 -4.47583
740 1 -6.39999 14.0653 3.48984 -4.63442
741 1 -5.32253 10.2525 2.45524 -4.5286
742 1 -5.46017 12.8415 5.29694 -4.43792