ITEM: TIMESTEP
148000
ITEM: NUMBER OF ATOMS
4050
ITEM: BOX BOUNDS ss ss pp
-2.0777997269733074e+01 2.0999176936154630e+01
-2.0775261829707400e+01 2.0671489064089482e+01
-2.0094700000000003e+00 5.6319470000000003e+01
ITEM: ATOMS id type x y z c_peratom
1 1 -12.4183 -16.0916 -0.148556 -4.14273
2 1 -8.07468 -18.3146 -1.06846 -4.45457
3 1 -8.98098 -17.4861 1.90454 -4.44581
4 1 -7.57106 -19.2535 1.20636 -4.36227
5 1 -6.39706 -16.7334 -0.476216 -4.69872
6 1 -5.44613 -18.4001 0.939321 -4.62392
7 1 -2.7319 -18.5114 -1.96 -4.63681
8 1 -4.85808 -19.2954 -1.06909 -3.71486
9 1 -4.22542 -17.0213 2.46227 -4.41551
10 1 -0.985261 -19.3929 2.8018 -4.35265
11 1 -1.74765 -16.7782 -0.743983 -4.48435
12 1 -0.0412101 -19.8054 -0.207394 -4.65813
13 1 -0.495247 -17.8653 1.06439 -4.57074
14 1 3.23719 -18.1534 55.8779 -4.63559
15 1 2.28956 -19.5785 -0.705976 -3.73866
16 1 1.3154 -16.8248 1.90298 -4.5239
17 1 3.21464 -19.5583 1.52565 -4.20146
18 1 3.91924 -16.6047 -0.920177 -4.72892
19 1 5.25451 -18.0683 0.419928 -4.29463
20 1 6.86053 -18.1852 -1.39673 -4.10358
21 1 9.76526 -17.7258 1.31846 -3.97837
22 1 6.37555 -16.8533 2.12897 -4.6013
23 1 8.88311 -16.8613 -0.618006 -4.39846
24 1 11.5779 -16.4617 2.03713 -3.74966
25 1 -15.0309 -12.7929 0.518914 -4.26184
26 1 -15.3742 -14.6704 1.79722 -3.98799
27 1 -13.8508 -16.4134 1.76747 -4.22773
28 1 -12.7358 -13.1928 55.9803 -4.68073
29 1 -13.9557 -14.3881 -0.760353 -4.09167
30 1 -13.9594 -11.9267 2.49111 -4.57069
31 1 -11.708 -15.0089 2.00834 -5.23901
32 1 -11.6671 -11.9912 -0.634114 -4.56544
33 1 -10.6679 -16.0388 -1.84471 -4.37532
34 1 -10.3563 -13.3975 0.803076 -4.3068
35 1 -7.75417 -15.5461 0.977504 -4.57616
36 1 -7.87507 -13.0513 -1.80633 -4.54477
37 1 -9.0821 -14.6965 -0.695696 -4.60905
38 1 -9.17305 -11.7671 2.27806 -4.49824
39 1 -6.6049 -14.1623 2.45048 -4.53578
40 1 -6.58177 -11.7028 -0.426876 -4.61936
41 1 -5.19144 -15.6597 56.1786 -4.52153
42 1 -5.15401 -13.0585 0.891903 -4.57536
43 1 -2.95975 -15.6437 0.888735 -4.51395
44 1 -2.56723 -13.0841 -2.29706 -4.58815
45 1 -3.97047 -14.2702 -0.718373 -4.56593
46 1 -3.79882 -11.6051 2.25808 -4.58061
47 1 -1.43477 -14.3639 2.30729 -4.57058
48 1 -1.33148 -11.7058 -0.819159 -4.58077
49 1 0.0401494 -15.9081 56.1253 -4.50318
50 1 -0.268745 -13.1152 0.800383 -4.53745
51 1 2.61148 -15.3076 0.631702 -4.54292
52 1 2.56633 -12.9324 56.2578 -4.56307
53 1 1.0405 -14.2893 -0.79319 -4.59506
54 1 1.24059 -11.8028 2.07236 -4.56629
55 1 4.1225 -14.3285 2.14001 -4.54492
56 1 3.87498 -11.4827 -0.649756 -4.56562
57 1 5.28102 -15.3042 56.0697 -4.46917
58 1 5.27876 -12.9549 0.626918 -4.59078
59 1 7.87207 -15.4989 0.917955 -4.67152
60 1 7.94246 -12.825 -2.0064 -4.55726
61 1 6.67688 -14.2989 -0.67243 -4.4905
62 1 6.45026 -11.8698 2.37395 -4.56444
63 1 9.11273 -14.3427 2.56514 -4.51107
64 1 8.94903 -11.4948 -0.387892 -4.52499
65 1 10.4048 -15.5918 -2.04533 -4.45742
66 1 10.2178 -12.6567 1.36841 -4.45298
67 1 12.7162 -15.2604 0.351435 -4.56635
68 1 12.3415 -12.2868 -1.15935 -4.11664
69 1 10.9584 -13.9658 -0.365446 -4.65228
70 1 11.8461 -11.523 2.56781 -4.60458
71 1 14.0687 -13.5492 1.5058 -4.06571
72 1 14.3768 -11.4644 0.150068 -5.35189
73 1 16.0949 -13.2146 0.222212 -4.09754
74 1 16.5396 -11.1565 1.14756 -4.03895
75 1 -17.6551 -7.81419 56.2163 -3.68785
76 1 -18.78 -5.87471 3.36854 -4.02846
77 1 -16.8994 -8.35514 3.12119 -4.15286
78 1 -17.0305 -6.47743 -0.186095 -4.57149
79 1 -15.3053 -10.76 -1.47697 -4.07609
80 1 -15.5327 -7.93982 1.02454 -4.45524
81 1 -12.7172 -10.6551 0.982106 -4.47019
82 1 -13.0766 -7.87804 -2.16759 -4.59264
83 1 -14.0311 -9.15511 -0.39001 -4.60086
84 1 -14.3442 -6.54601 2.43789 -4.38157
85 1 -11.5905 -8.97992 2.32256 -4.52943
86 1 -11.6925 -6.474 -0.84561 -4.55928
87 1 -10.4164 -10.5452 -2.03686 -4.61852
88 1 -10.4883 -7.73742 0.721447 -4.54255
89 1 -7.94688 -10.2867 0.891588 -4.61374
90 1 -7.74056 -7.82671 56.2361 -4.59701
91 1 -9.21844 -9.06222 -0.717818 -4.61375
92 1 -9.21562 -6.46712 2.34557 -4.56262
93 1 -6.56526 -8.96345 2.35406 -4.56209
94 1 -6.54667 -6.45369 -0.666832 -4.57101
95 1 -5.23137 -10.5114 56.4557 -4.54406
96 1 -5.1479 -7.70202 0.776207 -4.57275
97 1 -2.5634 -10.3781 0.734586 -4.5666
98 1 -2.57596 -7.69982 -2.03613 -4.59245
99 1 -3.87839 -9.04819 -0.698417 -4.59634
100 1 -3.92987 -6.43397 2.48303 -4.55217
101 1 -1.37651 -9.10423 2.28243 -4.56715
102 1 -1.22393 -6.42605 -0.539358 -4.61437
103 1 0.0463946 -10.3834 56.1858 -4.58823
104 1 0.0528993 -7.87894 0.826235 -4.58907
105 1 2.70801 -10.2433 0.926989 -4.5742
106 1 2.63251 -7.61346 56.1629 -4.55124
107 1 1.39229 -9.04887 -0.723078 -4.59655
108 1 1.43625 -6.39237 2.20305 -4.54811
109 1 4.0814 -8.96995 2.3658 -4.61863
110 1 3.95087 -6.47275 -0.637556 -4.5519
111 1 5.1792 -10.0845 -2.21617 -4.53704
112 1 5.36778 -7.5354 0.946311 -4.54415
113 1 7.6669 -10.1347 1.09647 -4.54633
114 1 7.75857 -7.7126 56.2763 -4.56758
115 1 6.46425 -8.96206 -0.49413 -4.5191
116 1 6.7694 -6.44126 2.4171 -4.54776
117 1 9.22812 -9.06382 2.4291 -4.57745
118 1 8.93348 -6.29718 -0.50116 -4.59249
119 1 10.1487 -10.0677 -1.87281 -4.53656
120 1 10.3924 -7.58692 0.895603 -4.60463
121 1 13.0847 -10.0062 1.36676 -4.31503
122 1 12.8508 -7.55799 56.5894 -4.56437
123 1 11.7145 -9.07557 -0.419327 -4.54474
124 1 11.6767 -6.2612 2.43662 -4.54676
125 1 14.6487 -8.81232 2.71791 -4.61234
126 1 14.1486 -6.4412 -0.22749 -4.52262
127 1 15.6427 -10.5528 -1.90118 -4.30001
128 1 15.5373 -8.05773 0.712766 -4.57307
129 1 17.977 -8.02982 56.1085 -3.28727
130 1 17.1565 -9.44532 -0.446952 -4.54432
131 1 16.7677 -6.20894 1.66632 -4.18965
132 1 18.9802 -5.78336 56.2251 -4.20943
133 1 -18.2398 -4.90907 1.21333 -4.38618
134 1 -18.2962 -2.38095 -1.6411 -4.93103
135 1 -19.6536 -3.10718 0.161984 -4.06285
136 1 -18.5416 -1.81275 1.64188 -4.41416
137 1 -16.3392 -4.10389 2.28967 -4.3221
138 1 -17.0006 -0.901451 -0.241779 -4.79606
139 1 -15.7142 -5.27576 -1.67717 -4.58979
140 1 -15.5141 -2.49726 0.861679 -4.33714
141 1 -12.8883 -5.44281 0.889139 -4.52485
142 1 -13.1989 -2.82025 56.223 -4.59035
143 1 -14.2318 -4.01619 -0.347479 -4.59882
144 1 -14.4045 -1.22818 2.44353 -4.58223
145 1 -11.8127 -3.86751 2.26323 -4.61285
146 1 -11.8875 -1.39389 -0.733987 -4.59746
147 1 -10.2732 -5.19292 56.2465 -4.52048
148 1 -10.5091 -2.59457 0.760646 -4.5581
149 1 -7.90099 -5.25317 0.870766 -4.59116
150 1 -7.68914 -2.54531 56.3505 -4.56527
151 1 -9.11836 -3.9226 -0.607189 -4.59108
152 1 -9.12348 -1.42221 2.41914 -4.61279
153 1 -6.71342 -3.84416 2.33099 -4.53566
154 1 -6.39175 -1.33064 -0.3 -4.53779
155 1 -5.2044 -5.12536 56.3748 -4.57348
156 1 -5.06399 -2.72616 1.13094 -4.57516
157 1 -2.64857 -5.26886 0.900461 -4.577
158 1 -2.65424 -2.41786 56.397 -4.52707
159 1 -3.84781 -3.86332 -0.521106 -4.56499
160 1 -3.78691 -1.19489 2.33151 -4.57981
161 1 -1.36235 -4.03627 2.36441 -4.55257
162 1 -1.06458 -1.29603 -0.43492 -4.57238
163 1 -0.0807916 -4.97126 56.3503 -4.56295
164 1 -0.0032313 -2.7438 1.09727 -4.55313
165 1 2.88287 -5.08001 0.920927 -4.58158
166 1 2.6542 -2.6278 56.2386 -4.58477
167 1 1.38639 -3.78692 -0.544661 -4.5535
168 1 1.38489 -1.39263 2.38304 -4.59176
169 1 4.28238 -3.74571 2.27285 -4.53291
170 1 3.86642 -1.25855 -0.60679 -4.57245
171 1 5.26763 -4.99889 56.3311 -4.60086
172 1 5.41075 -2.2626 0.851013 -4.60276
173 1 7.79602 -4.98563 1.0067 -4.5166
174 1 7.98913 -2.29529 -2.10794 -4.54279
175 1 6.65458 -3.71949 -0.566316 -4.55773
176 1 6.80388 -1.05734 2.30607 -4.54906
177 1 9.22158 -3.75846 2.54369 -4.56295
178 1 9.2507 -1.07093 -0.660017 -4.5085
179 1 10.3956 -5.00886 56.5388 -4.51724
180 1 10.3318 -2.32933 0.988695 -4.51337
181 1 13.2189 -4.99013 1.28887 -4.54595
182 1 12.7254 -2.33069 56.6614 -4.54092
183 1 11.6838 -3.8013 -0.068668 -4.53767
184 1 11.7703 -1.3944 2.76418 -4.497
185 1 14.8422 -3.85677 2.52165 -4.34434
186 1 14.1747 -1.12494 -0.174835 -4.5815
187 1 15.3833 -5.25915 56.3555 -4.41035
188 1 15.9054 -2.4908 0.868796 -4.51962
189 1 18.3077 -5.06845 0.125505 -4.60507
190 1 18.3362 -2.35947 56.2478 -4.6372
191 1 16.7798 -3.74868 -0.899592 -4.68541
192 1 17.0349 -0.985194 2.46472 -4.61132
193 1 19.1642 -2.94471 0.893375 -3.6026
194 1 19.2321 -0.906271 -0.524833 -4.00065
195 1 -20.2195 -0.92438 -1.31046 -4.25073
196 1 -19.3013 0.356551 2.08553 -4.39615
197 1 -18.3659 2.64306 -1.87832 -4.34339
198 1 -18.8857 0.659315 -0.326652 -4.24568
199 1 -18.9855 4.65518 3.23944 -3.54063
200 1 -17.1204 1.22534 2.50342 -4.57683
201 1 -17.0626 3.6642 -0.193735 -4.41296
202 1 -15.7011 0.0489501 -1.98584 -4.40637
203 1 -15.5644 2.39971 1.1539 -4.49581
204 1 -13.0102 0.0392023 0.857805 -4.53314
205 1 -13.0663 2.73373 56.2876 -4.58967
206 1 -14.3561 1.40109 -0.596487 -4.59944
207 1 -14.1198 3.89999 2.22431 -4.57697
208 1 -11.7135 1.35834 2.46237 -4.58982
209 1 -11.6318 3.97862 -0.649135 -4.5775
210 1 -10.6294 -0.0357013 56.1285 -4.56669
211 1 -10.5091 2.69457 0.977872 -4.58832
212 1 -7.81838 -0.0325609 0.982274 -4.61189
213 1 -8.00981 2.36473 56.3037 -4.54315
214 1 -9.3915 1.11901 -0.405495 -4.51999
215 1 -9.04009 4.09064 2.23002 -4.59341
216 1 -6.5255 1.42887 2.33657 -4.62147
217 1 -6.63978 3.72001 -0.773925 -4.56439
218 1 -5.37849 -0.00794291 56.2829 -4.54241
219 1 -5.20669 2.66456 0.821761 -4.62078
220 1 -2.55312 0.0366974 0.862469 -4.57538
221 1 -2.84673 2.65044 -2.20844 -4.55872
222 1 -3.89397 1.3026 -0.633465 -4.57481
223 1 -3.85665 4.08432 2.20112 -4.55331
224 1 -1.34565 1.27756 2.48662 -4.55382
225 1 -1.28593 3.94982 -0.767704 -4.5646
226 1 0.0993243 0.0671171 56.3279 -4.57695
227 1 -0.22263 2.56673 0.753197 -4.54739
228 1 2.41993 0.0575308 0.869792 -4.51067
229 1 2.70434 2.58824 56.1701 -4.54987
230 1 1.35828 1.40773 -0.583528 -4.53533
231 1 1.02699 3.96518 2.25914 -4.58225
232 1 3.7978 1.32297 2.37568 -4.60962
233 1 3.95158 3.91528 -0.586763 -4.56739
234 1 5.18004 0.143386 56.2274 -4.55589
235 1 5.19187 2.79148 1.06765 -4.51304
236 1 8.03312 0.34684 0.790665 -4.57428
237 1 7.82117 2.80145 -1.85916 -4.58258
238 1 6.39473 1.46074 -0.456514 -4.55822
239 1 6.39288 4.15942 2.32018 -4.48644
240 1 9.05036 1.50499 2.5596 -4.51101
241 1 9.21438 4.14227 -0.378308 -4.5841
242 1 10.5814 0.367495 -1.99866 -4.61085
243 1 10.4332 2.80485 1.19737 -4.61005
244 1 12.7761 0.214858 1.26582 -4.59048
245 1 13.0623 2.91371 -1.80028 -4.63896
246 1 11.6871 1.5961 -0.366437 -4.51704
247 1 11.858 4.17868 2.51733 -4.57103
248 1 14.1652 1.60289 2.5177 -4.58376
249 1 14.4215 4.3418 -0.456285 -4.52627
250 1 15.3609 0.0500832 -1.81917 -4.49709
251 1 15.5625 2.97204 1.16239 -4.35279
252 1 18.2538 0.336255 1.07637 -4.53061
253 1 17.7074 2.50367 -1.64236 -4.44009
254 1 16.4519 1.21227 -0.121654 -4.53092
255 1 17.3013 4.3147 1.9974 -4.77242
256 1 19.5752 1.25046 2.9015 -4.3459
257 1 19.5371 3.88422 -2.08316 -4.18113
258 1 19.5808 1.31408 55.925 -3.73968
259 1 -18.2568 5.41162 0.881271 -4.35348
260 1 -17.6226 8.30099 55.4371 -4.4529
261 1 -18.1692 6.59147 -1.25079 -4.18245
262 1 -16.7917 6.71575 2.31583 -4.63482
263 1 -17.0177 9.44265 -0.891861 -3.56944
264 1 -16.2322 5.23586 -1.89139 -5.36817
265 1 -15.7678 8.27787 0.876366 -4.60373
266 1 -13.1023 5.37827 0.677169 -4.57831
267 1 -13.3589 7.67297 -2.16801 -4.51239
268 1 -14.724 6.65183 -0.501119 -4.32592
269 1 -14.316 9.51921 2.37227 -4.54017
270 1 -11.932 6.6559 2.24499 -4.5853
271 1 -11.9523 9.01873 -0.83312 -4.54132
272 1 -10.4258 5.23843 -2.19342 -4.61685
273 1 -10.5505 7.78256 0.710825 -4.56696
274 1 -7.71389 5.30299 0.589225 -4.57048
275 1 -7.76284 7.93282 56.1689 -4.6329
276 1 -9.17022 6.58076 -0.752658 -4.62678
277 1 -9.06623 9.03663 2.16374 -4.57854
278 1 -6.55807 6.61105 2.15938 -4.52426
279 1 -6.47025 9.1987 -0.704073 -4.6004
280 1 -5.298 5.32154 56.3871 -4.58825
281 1 -5.14698 7.89111 0.765238 -4.61002
282 1 -2.50775 5.31437 0.680717 -4.58292
283 1 -2.45691 8.05452 -2.14814 -4.57223
284 1 -3.82451 6.68543 -0.74045 -4.61468
285 1 -3.85623 9.10112 2.35997 -4.57135
286 1 -1.42721 6.64787 2.32324 -4.55407
287 1 -1.34113 9.26705 -0.562332 -4.57451
288 1 0.17239 5.30569 56.2837 -4.56194
289 1 0.0692525 8.00138 0.910436 -4.57153
290 1 2.68178 5.15649 1.03249 -4.58953
291 1 2.5485 7.81023 -2.01861 -4.53355
292 1 1.32385 6.48575 -0.425463 -4.58417
293 1 1.1896 9.39281 2.54312 -4.55092
294 1 3.89629 6.80982 2.16378 -4.54756
295 1 3.90861 9.18169 -0.512061 -4.58766
296 1 5.15572 5.34898 -1.98344 -4.5688
297 1 5.47159 7.99739 0.901593 -4.55063
298 1 7.86536 5.43092 1.08011 -4.58113
299 1 7.91136 7.98565 -2.08611 -4.55372
300 1 6.61688 6.60117 -0.507273 -4.52928
301 1 6.59867 9.33133 2.66162 -4.55383
302 1 9.29132 6.62384 2.5164 -4.58081
303 1 9.01762 9.27709 -0.357951 -4.45874
304 1 10.4552 5.56035 56.5833 -4.54398
305 1 10.4658 8.25693 1.20104 -4.30668
306 1 13.0116 5.56262 0.925718 -4.55615
307 1 12.678 7.70074 55.8345 -4.36569
308 1 11.687 7.06855 -0.380581 -4.4928
309 1 12.2227 9.79178 2.39394 -4.83491
310 1 14.4711 6.93502 2.36087 -4.54528
311 1 14.2745 8.82114 -1.03274 -4.37466
312 1 15.4024 5.47207 55.9726 -4.44003
313 1 16.2203 8.32222 1.3796 -4.50133
314 1 18.8512 5.03596 0.216081 -4.03239
315 1 17.4005 6.66469 55.9847 -4.65864
316 1 17.6973 7.067 0.0618438 -3.6623
317 1 17.3138 8.84664 3.30566 -4.26242
318 1 19.3935 5.37922 2.56966 -4.10953
319 1 -16.3145 13.0667 3.19606 -4.14274
320 1 -15.3834 10.7518 56.3805 -4.71525
321 1 -15.4361 13.7829 1.02172 -4.14461
322 1 -12.8871 10.4656 0.769582 -4.59732
323 1 -13.0244 12.9348 -1.90938 -4.64977
324 1 -14.3466 12.0672 -0.221061 -4.53375
325 1 -14.1207 14.2294 2.94527 -4.78057
326 1 -11.5049 11.7961 2.18187 -4.53065
327 1 -12.1733 14.594 -0.566066 -4.60908
328 1 -10.641 10.5211 56.1137 -4.5733
329 1 -10.5544 13.0792 0.385051 -4.48922
330 1 -7.97401 10.4594 0.7113 -4.56221
331 1 -7.78126 13.2131 56.1091 -4.56362
332 1 -9.22116 11.7215 -0.857925 -4.53436
333 1 -9.1134 14.0779 2.00166 -4.46497
334 1 -6.40276 11.6101 2.10474 -4.57542
335 1 -6.38575 14.3962 -0.828252 -4.53455
336 1 -5.20871 10.4855 56.2434 -4.55533
337 1 -5.22801 13.14 0.852028 -4.54239
338 1 -2.67346 10.5364 0.942096 -4.58298
339 1 -2.64524 13.0977 56.4488 -4.57454
340 1 -3.99705 11.7566 -0.538584 -4.5914
341 1 -3.88689 14.2368 2.54809 -4.33076
342 1 -1.4083 11.8633 2.39477 -4.52579
343 1 -1.19712 14.3743 -0.613486 -4.58299
344 1 -0.131292 10.5989 -2.05675 -4.61941
345 1 0.0320908 13.1905 0.994068 -4.55686
346 1 2.53664 10.5148 0.919549 -4.57537
347 1 2.67901 13.0874 -1.86659 -4.56472
348 1 1.23 11.8155 -0.588633 -4.5805
349 1 1.15357 14.479 2.46327 -4.46361
350 1 3.68116 11.907 2.40716 -4.56334
351 1 4.05558 14.6487 -0.657363 -4.49351
352 1 5.34495 10.4454 -1.85343 -4.54135
353 1 5.10862 13.2376 1.03431 -4.48996
354 1 7.89257 10.652 1.16191 -4.59769
355 1 7.70441 13.1125 -1.88113 -4.35923
356 1 6.55656 11.9027 -0.262803 -4.5202
357 1 6.50164 14.5907 2.60684 -4.51777
358 1 9.15085 12.0521 2.61621 -4.37048
359 1 9.14189 14.6367 -0.657518 -4.83164
360 1 10.3187 10.3259 56.2313 -4.35399
361 1 10.4628 13.2326 0.882106 -4.64574
362 1 12.8718 10.1716 0.0581926 -4.38476
363 1 12.7547 12.7482 55.4385 -4.30167
364 1 11.5419 11.922 -0.913545 -4.78029
365 1 11.4681 14.2028 2.92 -4.23812
366 1 14.2315 11.1283 2.8594 -4.30796
367 1 13.5296 13.5052 -0.682961 -4.26126
368 1 15.4567 10.2941 55.7155 -4.33795
369 1 14.4573 11.6591 0.621674 -4.66117
370 1 16.1285 10.1926 -0.321744 -4.30279
371 1 -13.8489 15.5791 0.883143 -4.14793
372 1 -12.7203 16.1555 2.96396 -4.2088
373 1 -9.83679 16.7939 55.6891 -4.43452
374 1 -8.17718 15.2775 0.290934 -4.52589
375 1 -8.07751 18.2005 56.443 -4.08572
376 1 -9.61638 17.1805 -0.281631 -4.40476
377 1 -6.64486 16.2417 1.75082 -4.75022
378 1 -8.19038 18.8865 0.544651 -4.20181
379 1 -5.14051 15.9058 56.2416 -4.63855
380 1 -5.9975 18.111 0.514149 -4.68727
381 1 -2.8446 15.4598 0.801087 -4.58369
382 1 -2.59427 18.341 -1.96404 -4.57201
383 1 -4.02093 17.1438 -0.379673 -4.44176
384 1 -4.96654 18.9929 2.49246 -3.86795
385 1 -1.53672 16.7937 2.21479 -4.57773
386 1 -0.830945 19.2274 -0.776375 -3.68396
387 1 0.175483 15.6716 -1.97435 -4.58826
388 1 0.0519862 18.0761 1.05778 -4.71444
389 1 2.62451 15.6761 0.997332 -4.50918
390 1 2.98707 18.7023 -1.39018 -4.42062
391 1 1.51166 17.0099 -0.549405 -4.63196
392 1 1.10589 19.5156 2.55181 -4.51018
393 1 3.86392 16.7852 2.74888 -4.63325
394 1 2.82499 19.8505 0.698647 -4.22992
395 1 5.3992 15.9766 -2.22045 -4.48561
396 1 4.64692 18.4746 1.4271 -4.25362
397 1 8.12004 16.669 0.155656 -4.39939
398 1 9.3786 17.9707 -1.23425 -4.26144
399 1 6.18939 17.666 -0.771681 -4.19093
400 1 5.71061 19.19 3.4261 -3.70863
401 1 8.39196 15.9955 2.44756 -4.47724
402 1 10.0337 15.2119 55.5172 -4.2487
403 1 12.1858 14.9096 0.73341 -4.27616
404 1 11.0231 16.2391 -0.920926 -4.24844
405 1 1.28414 20.2493 -1.08149 -4.32301
406 1 -12.696 -16.4394 3.83748 -4.26758
407 1 -7.48603 -18.4847 3.42187 -3.53383
408 1 -9.44951 -16.5935 8.0729 -3.76759
409 1 -6.61049 -19.0152 9.10298 -4.1476
410 1 -6.50139 -17.2357 5.27682 -4.53063
411 1 -5.53209 -18.8687 6.78777 -4.1438
412 1 -2.7362 -18.1622 4.00061 -4.43029
413 1 -3.16797 -19.2564 6.14052 -4.16264
414 1 -3.88022 -17.4021 7.62572 -4.80857
415 1 -1.3043 -19.4166 7.52923 -4.08729
416 1 -1.23157 -16.8919 5.13486 -4.68699
417 1 0.917837 -20.6244 1.89136 -4.06665
418 1 0.356652 -18.3506 6.10851 -4.38324
419 1 2.63578 -18.0322 3.27004 -4.52817
420 1 0.94325 -19.5491 4.13245 -4.31533
421 1 1.23907 -16.675 7.68036 -4.44696
422 1 4.36856 -19.1237 8.66475 -4.41999
423 1 3.92623 -16.9858 4.88563 -4.46384
424 1 5.22841 -18.2543 6.5152 -4.49513
425 1 8.09715 -18.0956 3.07741 -4.45791
426 1 7.19283 -18.7369 5.32912 -3.39796
427 1 6.3646 -16.7108 7.98005 -4.42958
428 1 9.01319 -17.226 5.09981 -4.40456
429 1 12.962 -15.5077 9.16318 -4.17939
430 1 -17.6525 -10.0767 5.72444 -4.2722
431 1 -15.9614 -11.9523 5.73033 -4.14108
432 1 -13.4462 -14.3954 4.7993 -4.47793
433 1 -12.0682 -13.1406 3.43093 -4.38654
434 1 -15.3247 -13.4038 3.83424 -4.44625
435 1 -14.5794 -11.5345 7.66816 -4.5097
436 1 -12.341 -14.1665 7.28857 -4.21372
437 1 -11.6103 -11.4747 5.15685 -4.48503
438 1 -10.4026 -16.293 3.64153 -4.10887
439 1 -10.4984 -12.9842 6.55579 -4.6109
440 1 -8.09212 -15.7187 6.28707 -4.64262
441 1 -8.08018 -13.0462 3.86905 -4.59275
442 1 -9.55013 -14.4612 4.94229 -4.49634
443 1 -9.22674 -11.5701 8.24671 -4.50438
444 1 -6.65172 -14.6073 7.86959 -4.57753
445 1 -6.67808 -11.7377 5.21604 -4.55236
446 1 -5.451 -15.6573 3.82314 -4.58752
447 1 -5.38414 -13.0327 6.64345 -4.64921
448 1 -2.59353 -15.6121 6.54593 -4.44872
449 1 -2.68128 -12.9885 3.75894 -4.61669
450 1 -4.05678 -14.3656 5.18994 -4.62741
451 1 -4.10011 -11.7101 8.10424 -4.59752
452 1 -1.41152 -14.191 7.99159 -4.60006
453 1 -1.3862 -11.5733 5.1203 -4.54221
454 1 0.0560083 -15.6182 3.61424 -4.61358
455 1 -0.013407 -12.8254 6.58884 -4.55737
456 1 2.75169 -15.4736 6.29807 -4.6083
457 1 2.70358 -12.9732 3.49289 -4.58268
458 1 1.32119 -14.1773 5.02749 -4.59999
459 1 1.29724 -11.6505 8.28726 -4.5703
460 1 3.94752 -14.2444 8.01239 -4.54807
461 1 3.75815 -11.7782 5.17209 -4.50386
462 1 5.36223 -15.5076 3.86034 -4.48781
463 1 5.28518 -12.7814 6.71182 -4.61711
464 1 8.02834 -15.554 6.54126 -4.49434
465 1 7.93279 -12.9241 3.88979 -4.59385
466 1 6.59766 -14.2349 5.29491 -4.58828
467 1 6.63399 -11.6404 8.2691 -4.55982
468 1 9.50008 -14.2686 7.9733 -4.46215
469 1 9.03417 -11.3897 5.31476 -4.5457
470 1 10.4378 -15.6849 3.95568 -4.5375
471 1 10.65 -12.6389 6.58284 -4.64093
472 1 13.369 -14.7632 6.85128 -4.16125
473 1 13.3094 -12.9592 3.7504 -4.4859
474 1 11.8126 -14.1022 5.08629 -4.48302
475 1 12.1781 -11.4545 7.93081 -4.3647
476 1 13.4991 -13.1872 8.79962 -5
477 1 14.6942 -11.6935 5.16465 -4.59398
478 1 15.3631 -13.4335 6.49124 -3.80624
479 1 15.788 -12.9721 8.80062 -4.34115
480 1 -18.5791 -7.97597 4.79586 -4.33648
481 1 -19.3324 -5.90933 9.17219 -4.33254
482 1 -17.1476 -9.63311 7.95752 -4.59261
483 1 -17.1073 -6.65288 5.93721 -4.47637
484 1 -15.6124 -9.91509 4.39962 -4.57076
485 1 -15.7424 -7.9358 7.28788 -4.54655
486 1 -12.975 -10.0412 6.63431 -4.54048
487 1 -13.0135 -7.85467 3.84992 -4.48933
488 1 -14.3387 -8.50283 5.60898 -4.55457
489 1 -14.408 -6.38235 8.3834 -4.5699
490 1 -12.0577 -8.97505 8.37402 -4.51083
491 1 -11.8234 -6.44894 5.20658 -4.61774
492 1 -10.1693 -10.1627 3.70397 -4.57913
493 1 -10.6752 -7.59941 6.94616 -4.53511
494 1 -8.00243 -10.3503 6.63144 -4.61804
495 1 -7.87693 -7.67097 3.93001 -4.54307
496 1 -9.2997 -8.86042 5.43612 -4.54254
497 1 -9.17047 -6.51069 8.35266 -4.54599
498 1 -6.68316 -9.15729 8.19782 -4.58366
499 1 -6.69797 -6.39551 5.41254 -4.5465
500 1 -5.27028 -10.3626 3.70656 -4.56118
501 1 -5.35443 -7.66827 6.76283 -4.58523
502 1 -2.85021 -10.3349 6.74218 -4.52254
503 1 -2.61219 -7.81447 3.87062 -4.59426
504 1 -4.14998 -9.03755 5.24812 -4.60521
505 1 -3.91277 -6.377 8.17554 -4.58785
506 1 -1.31007 -9.2522 8.10352 -4.57882
507 1 -1.29238 -6.51213 5.348 -4.58554
508 1 -0.0822323 -10.4483 3.64599 -4.57686
509 1 -0.00832016 -7.84236 6.7173 -4.56985
510 1 2.55189 -10.5055 6.66957 -4.54201
511 1 2.6337 -7.64925 3.64279 -4.55739
512 1 1.27634 -9.14175 5.12038 -4.53721
513 1 1.27091 -6.47936 7.9984 -4.54751
514 1 3.77952 -9.04388 8.12844 -4.569
515 1 4.21408 -6.53395 5.08427 -4.56399
516 1 5.20267 -10.5133 3.9045 -4.55588
517 1 5.36093 -7.70654 6.74298 -4.49791
518 1 7.77079 -10.2294 6.82524 -4.56408
519 1 8.02866 -7.62042 4.00923 -4.50364
520 1 6.42182 -9.00069 5.17026 -4.54849
521 1 6.66876 -6.57287 8.31603 -4.57289
522 1 9.20729 -8.94321 8.25279 -4.59825
523 1 9.49867 -6.40909 5.70506 -4.53055
524 1 10.5848 -10.2562 4.01318 -4.56985
525 1 10.8836 -7.86456 6.93925 -4.58459
526 1 13.6275 -10.0845 6.58946 -4.60609
527 1 13.3419 -7.30853 3.8772 -4.51794
528 1 12.1636 -8.88936 5.24225 -4.58381
529 1 12.3341 -6.47714 8.32139 -4.57093
530 1 14.8654 -9.03423 8.25726 -4.47814
531 1 14.7732 -6.40931 5.43461 -4.39163
532 1 16.1234 -10.44 3.60967 -4.43791
533 1 16.1642 -7.78875 6.80406 -4.55368
534 1 18.0523 -6.95819 3.50781 -4.48371
535 1 17.0768 -8.59514 4.75245 -3.62671
536 1 17.2724 -6.53283 8.62033 -4.36346
537 1 19.0197 -5.52371 5.11875 -3.76396
538 1 -18.5606 -5.09262 6.89293 -4.49445
539 1 -17.6695 -2.80734 3.74479 -4.28564
540 1 -19.2892 -4.02761 4.83839 -4.39265
541 1 -19.8383 -1.91472 6.11996 -3.96293
542 1 -16.9913 -3.6912 7.94522 -4.56575
543 1 -17.6479 -1.05161 5.36608 -5.3483
544 1 -16.1824 -5.94599 3.85065 -5.22066
545 1 -15.9133 -2.42302 6.41668 -4.2269
546 1 -13.3192 -5.14562 6.54136 -4.5069
547 1 -13.3172 -2.84673 3.77131 -4.57965
548 1 -14.8221 -4.2097 5.05562 -4.20659
549 1 -14.4364 -1.44614 8.03 -4.50399
550 1 -11.7187 -4.11446 8.07511 -4.54347
551 1 -11.8414 -1.49947 5.14022 -4.60003
552 1 -10.4495 -5.04254 3.7956 -4.56289
553 1 -10.5507 -2.57942 6.73796 -4.5486
554 1 -7.88364 -5.06669 6.90826 -4.57781
555 1 -7.87882 -2.7419 3.91657 -4.52501
556 1 -9.28297 -3.88122 5.3933 -4.53739
557 1 -9.12326 -1.17788 8.1335 -4.55436
558 1 -6.54159 -3.62131 8.18599 -4.58806
559 1 -6.54364 -1.17298 5.02987 -4.54933
560 1 -5.42548 -5.17721 3.72832 -4.57244
561 1 -5.17766 -2.38373 6.72247 -4.51629
562 1 -2.73211 -5.10511 6.67144 -4.57062
563 1 -2.55484 -2.55579 3.8621 -4.60374
564 1 -4.11638 -3.77711 5.23071 -4.59489
565 1 -3.82778 -1.28384 8.22612 -4.56787
566 1 -1.51845 -3.86869 8.33011 -4.56889
567 1 -1.23662 -1.41957 5.44388 -4.59453
568 1 0.000172753 -5.25807 3.78311 -4.59468
569 1 0.0096335 -2.86995 6.8833 -4.57869
570 1 2.83475 -5.36723 6.54563 -4.56492
571 1 2.7213 -2.74409 3.84223 -4.58746
572 1 1.29364 -3.94077 5.2217 -4.53207
573 1 1.31075 -1.41788 8.10165 -4.60035
574 1 4.00379 -4.10884 8.08061 -4.56358
575 1 4.0766 -1.3952 5.23223 -4.59437
576 1 5.4817 -4.95304 3.7891 -4.54742
577 1 5.34028 -2.68646 6.81632 -4.60506
578 1 7.94131 -5.1138 6.93739 -4.59936
579 1 7.94094 -2.40381 4.02247 -4.584
580 1 6.73554 -3.89829 5.36326 -4.54427
581 1 6.65118 -1.52185 8.34822 -4.60249
582 1 9.24745 -3.85793 8.36668 -4.55917
583 1 9.23129 -1.12876 5.58176 -4.63085
584 1 10.562 -4.95828 4.10487 -4.55177
585 1 10.5998 -2.71731 6.74913 -4.57672
586 1 13.4769 -5.10474 6.80108 -4.56863
587 1 13.4304 -2.53232 3.85578 -4.52602
588 1 12.118 -3.79291 5.29928 -4.55456
589 1 11.7348 -1.37971 8.29119 -4.61798
590 1 14.7469 -3.66747 8.15214 -4.53585
591 1 14.4098 -1.22212 5.50603 -4.5727
592 1 16.2959 -5.34908 3.88189 -4.86357
593 1 16.0209 -2.61439 6.53474 -4.3626
594 1 18.2512 -4.77167 7.17968 -3.42669
595 1 18.8547 -2.26701 3.24137 -4.3084
596 1 17.6154 -3.69623 4.95524 -4.79798
597 1 17.0097 -1.17128 8.05606 -4.49559
598 1 19.2089 -1.9099 8.91984 -4.53067
599 1 19.5049 -0.307348 4.60359 -4.26997
600 1 -19.7665 -0.0451627 4.50728 -3.9874
601 1 -18.0446 0.483375 7.23225 -4.46749
602 1 -17.8696 2.7459 4.15297 -4.67918
603 1 -19.4101 1.97816 5.97757 -4.55716
604 1 -19.0287 3.78373 7.53743 -3.65799
605 1 -16.6341 1.82891 8.48949 -4.57255
606 1 -16.7204 4.39724 5.28883 -4.54099
607 1 -15.8759 -0.120433 3.94125 -4.34151
608 1 -15.7912 2.73042 6.55651 -4.43128
609 1 -13.2184 -0.160558 6.46628 -4.61864
610 1 -13.0628 2.66813 3.92628 -4.60088
611 1 -14.5344 1.25692 5.17782 -4.56798
612 1 -14.2346 3.93714 7.88803 -4.62566
613 1 -11.7858 1.12344 7.95337 -4.54898
614 1 -11.6127 4.01549 5.1744 -4.56106
615 1 -10.4496 -0.0598704 3.88226 -4.61006
616 1 -10.4203 2.55058 6.64109 -4.62115
617 1 -7.64669 0.152662 6.68303 -4.55985
618 1 -7.94888 2.73281 3.7785 -4.58099
619 1 -9.07409 1.32071 5.24521 -4.6114
620 1 -9.02957 3.93586 7.95467 -4.57608
621 1 -6.45632 1.53937 8.05302 -4.55466
622 1 -6.51418 4.11641 5.15511 -4.59143
623 1 -5.12604 0.119392 3.66401 -4.59519
624 1 -5.14162 2.72192 6.53979 -4.60005
625 1 -2.43749 0.0402938 6.70966 -4.56456
626 1 -2.71762 2.76931 3.78252 -4.59449
627 1 -3.83792 1.28539 5.2687 -4.57964
628 1 -3.82186 4.06966 8.00619 -4.6079
629 1 -1.21771 1.34771 8.17789 -4.60405
630 1 -1.24553 3.91693 5.22526 -4.60108
631 1 0.0936471 -0.110201 3.94249 -4.56277
632 1 0.0832768 2.69235 6.76183 -4.58956
633 1 2.57748 -0.0953066 6.65836 -4.59202
634 1 2.45346 2.71249 3.7624 -4.61854
635 1 1.29673 1.30685 5.265 -4.5998
636 1 1.39168 3.98799 8.23962 -4.55454
637 1 3.92965 1.29881 8.01423 -4.57998
638 1 4.03574 3.92636 5.04377 -4.5705
639 1 5.21784 0.0658027 3.75855 -4.56862
640 1 5.18131 2.68322 6.71315 -4.57925
641 1 7.83314 0.0528673 7.06553 -4.59014
642 1 7.63499 2.6517 3.85916 -4.50488
643 1 6.48705 1.21012 5.41004 -4.56145
644 1 6.41045 4.12282 8.09852 -4.59753
645 1 9.15946 1.37357 8.54364 -4.62128
646 1 9.12351 3.84325 5.25859 -4.55127
647 1 10.4867 0.218439 3.98693 -4.55666
648 1 10.4377 2.69096 6.99304 -4.56559
649 1 13.1142 -0.020352 6.98493 -4.56727
650 1 12.8893 2.82634 4.12762 -4.61273
651 1 11.6866 1.33612 5.60466 -4.55635
652 1 11.701 4.06931 8.42689 -4.55617
653 1 14.2561 1.50226 8.37135 -4.56593
654 1 14.2372 4.41888 5.20193 -4.47561
655 1 15.5605 0.108521 3.92847 -4.54745
656 1 15.2152 3.04029 6.82049 -4.55504
657 1 18.0374 0.115872 6.36185 -4.63575
658 1 17.749 2.5282 3.48617 -4.55923
659 1 16.5295 1.75182 5.41045 -4.55223
660 1 16.8491 4.2479 8.05964 -4.54571
661 1 19.2757 1.82184 7.354 -4.46693
662 1 19.2942 4.03278 4.4017 -4.552
663 1 20.4022 1.98267 5.09691 -4.09549
664 1 -19.2573 6.03221 7.68976 -4.48682
665 1 -17.9648 7.72563 4.17306 -3.67157
666 1 -18.6353 5.78884 5.24184 -4.51507
667 1 -17.0218 6.63051 8.04853 -4.7192
668 1 -17.0495 9.67587 5.36297 -4.41754
669 1 -15.4495 5.35406 3.49024 -4.53867
670 1 -15.9047 7.91696 6.40554 -4.54318
671 1 -12.8934 5.31947 6.53338 -4.56283
672 1 -13.096 7.99767 3.79204 -4.59095
673 1 -14.4717 6.58874 5.23236 -4.52309
674 1 -14.5853 9.03794 7.99434 -4.60399
675 1 -11.7025 6.5842 7.99162 -4.54026
676 1 -11.6671 9.26285 5.22538 -4.59771
677 1 -10.5394 5.2851 3.59425 -4.58271
678 1 -10.4654 7.88131 6.57539 -4.56218
679 1 -7.8547 5.4026 6.53699 -4.57577
680 1 -7.74725 7.81902 3.67207 -4.50576
681 1 -9.19556 6.6081 4.98756 -4.59404
682 1 -9.32761 9.28613 8.05163 -4.57008
683 1 -6.68268 6.65501 8.12894 -4.60012
684 1 -6.65408 9.19303 5.34366 -4.57421
685 1 -5.24266 5.2902 3.67357 -4.54543
686 1 -5.28145 7.88928 6.77028 -4.61022
687 1 -2.4324 5.36708 6.67928 -4.60405
688 1 -2.71121 7.78539 3.89263 -4.55355
689 1 -3.97298 6.40613 5.29544 -4.55056
690 1 -3.96333 9.27975 8.24839 -4.58382
691 1 -1.31964 6.60205 8.34617 -4.57905
692 1 -1.44097 9.13057 5.49319 -4.57028
693 1 -0.128252 5.42447 3.83883 -4.59451
694 1 0.0019816 7.82021 6.76751 -4.59107
695 1 2.67338 5.18406 6.5433 -4.56544
696 1 2.58911 7.89226 3.86508 -4.57053
697 1 1.36867 6.60401 5.31705 -4.54316
698 1 1.14624 9.22061 8.24812 -4.60115
699 1 3.82597 6.75148 8.01628 -4.56517
700 1 3.84388 9.28218 5.32475 -4.6261
701 1 5.17581 5.54006 3.82255 -4.58046
702 1 5.30486 7.94261 6.68374 -4.58815
703 1 7.99854 5.2705 6.77775 -4.58709
704 1 8.0797 7.98151 4.00231 -4.62515
705 1 6.64354 6.59814 5.30701 -4.60703
706 1 6.55085 9.43228 8.16181 -4.56189
707 1 9.16418 6.76724 8.28669 -4.56723
708 1 9.22035 9.46937 5.44929 -4.53462
709 1 10.4973 5.30916 4.07011 -4.59859
710 1 10.5149 8.28243 7.03377 -4.37301
711 1 12.9355 5.41619 6.86238 -4.51084
712 1 12.9156 7.86664 3.79789 -4.35021
713 1 11.5458 6.90636 5.47647 -4.50164
714 1 11.8666 9.70626 8.51271 -4.74622
715 1 14.0806 6.97427 8.35329 -4.43119
716 1 14.5011 8.81269 5.25417 -4.4388
717 1 15.7246 5.27928 3.48877 -4.2429
718 1 15.7739 8.45208 7.34138 -4.67393
719 1 17.656 4.9246 5.93587 -4.28119
720 1 19.0604 7.34071 3.88185 -4.15243
721 1 16.9289 6.94509 4.84644 -4.85754
722 1 17.1639 9.84903 8.69103 -4.15808
723 1 18.8405 6.93109 6.28108 -4.16876
724 1 -16.2329 11.448 6.84995 -4.09519
725 1 -15.8941 10.7781 3.53496 -4.46596
726 1 -15.6924 13.4035 5.60406 -4.23143
727 1 -13.1467 10.3486 6.69119 -4.3945
728 1 -12.6428 12.7708 4.05144 -4.00623
729 1 -14.4072 11.4722 5.19475 -4.97736
730 1 -13.7876 14.4888 6.68336 -4.04663
731 1 -11.53 11.6693 7.80117 -4.58651
732 1 -11.592 14.404 5.57159 -5.44206
733 1 -10.2276 10.4594 3.66101 -4.51356
734 1 -9.99022 13.1345 6.77718 -4.33998
735 1 -7.78632 10.7198 6.77775 -4.57538
736 1 -7.55189 13.0818 3.5919 -4.51521
737 1 -8.86889 11.9722 5.13763 -4.51828
738 1 -8.60234 14.6466 7.92146 -4.59318
739 1 -6.30926 11.9018 8.16553 -4.53566
740 1 -6.40099 14.614 4.8933 -4.55237
741 1 -5.27157 10.3338 3.78661 -4.53936
742 1 -5.2586 13.364 6.57365 -4.45932