ITEM: TIMESTEP
38000
ITEM: NUMBER OF ATOMS
4050
ITEM: BOX BOUNDS ss ss pp
-2.1472942295487645e+01 2.1241711426775367e+01
-2.1754025807671418e+01 2.1429233612234004e+01
-5.1594500000000010e-01 5.4825945000000004e+01
ITEM: ATOMS id type x y z c_peratom
1 1 -12.445 -16.0825 1.503 -3.82506
2 1 -8.29881 -18.7929 0.248012 -4.26294
3 1 -9.18728 -17.4315 2.99685 -4.507
4 1 -7.7672 -19.2907 2.63081 -4.3952
5 1 -6.36008 -17.3788 0.611534 -5.08715
6 1 -5.53118 -18.6064 2.32657 -4.39748
7 1 -2.64773 -19.0586 -0.456458 -4.61287
8 1 -4.71488 -19.7702 0.510226 -4.01732
9 1 -3.86895 -17.531 3.67733 -4.42815
10 1 -0.874684 -20.3423 4.12977 -4.30985
11 1 -1.64853 -17.2379 0.765364 -4.53074
12 1 0.333161 -20.361 1.14764 -4.59782
13 1 -0.682233 -18.6949 2.31939 -4.58416
14 1 3.43205 -18.4743 54.5119 -4.13683
15 1 2.15185 -19.0245 0.997428 -4.02734
16 1 0.934042 -17.2115 3.1395 -4.52332
17 1 3.23611 -19.6469 2.91399 -4.54825
18 1 4.28957 -16.8545 0.765842 -4.66639
19 1 5.23569 -18.6332 1.84857 -4.43105
20 1 8.19761 -18.4045 0.348959 -4.0748
21 1 9.61215 -18.8691 2.28735 -4.11394
22 1 6.49102 -17.0432 3.27879 -4.50974
23 1 9.64127 -16.6869 1.12113 -4.83206
24 1 11.379 -17.3149 2.61122 -4.22512
25 1 -15.3323 -12.8469 1.51291 -3.7691
26 1 -15.9209 -13.8826 3.55156 -4.15314
27 1 -14.1858 -15.4275 3.01912 -4.49923
28 1 -13.0774 -13.5248 -0.645901 -4.41305
29 1 -14.4244 -14.9042 0.619802 -4.35068
30 1 -14.5134 -11.9231 3.61765 -4.77944
31 1 -11.9719 -14.5144 3.46659 -5.16741
32 1 -12.0008 -11.8427 0.698714 -4.57142
33 1 -10.844 -15.8699 55.1253 -4.3745
34 1 -10.5511 -13.0893 2.11022 -4.34677
35 1 -7.78977 -15.9779 2.01019 -4.32795
36 1 -7.83052 -13.2969 -0.539034 -4.63464
37 1 -9.26456 -14.5046 0.887489 -4.61442
38 1 -9.14532 -12.0049 3.61025 -4.5854
39 1 -6.82645 -14.7783 3.64354 -4.50301
40 1 -6.47096 -11.9707 0.864576 -4.59043
41 1 -5.02619 -15.9069 54.7348 -4.42236
42 1 -5.36099 -13.4451 2.46855 -4.58317
43 1 -2.79959 -15.9319 2.36151 -4.52355
44 1 -2.35326 -13.3996 -0.414176 -4.60171
45 1 -3.93334 -14.4844 0.92627 -4.59161
46 1 -3.97706 -12.0735 3.77212 -4.60201
47 1 -1.4071 -14.6539 3.50681 -4.52809
48 1 -1.14335 -11.9587 0.986327 -4.61008
49 1 0.251042 -16.1866 55.0243 -4.52585
50 1 0.123245 -13.4289 2.28576 -4.57703
51 1 2.8142 -15.9067 2.25133 -4.44555
52 1 2.71618 -13.3174 54.6062 -4.52324
53 1 1.61237 -14.5808 0.813536 -4.57319
54 1 1.24301 -12.0169 3.75216 -4.59253
55 1 4.01292 -14.659 3.76602 -4.59497
56 1 3.70278 -11.8209 0.924925 -4.51549
57 1 5.64857 -15.6018 54.7197 -4.589
58 1 4.99226 -12.9906 2.38128 -4.55745
59 1 7.85563 -15.4515 2.14402 -4.42011
60 1 8.07653 -12.9322 54.7054 -4.51801
61 1 6.62737 -14.0816 0.956295 -4.52199
62 1 6.47477 -11.581 3.653 -4.58833
63 1 9.30025 -14.4458 3.76673 -4.55341
64 1 9.17343 -11.4709 0.908557 -4.60287
65 1 11.085 -16.0292 54.4167 -4.29776
66 1 10.3559 -12.9661 2.31246 -4.57792
67 1 13.0869 -15.8261 1.64475 -4.51651
68 1 12.8289 -12.5817 -0.469996 -4.44015
69 1 11.6815 -14.2389 0.701226 -4.60949
70 1 11.8843 -11.8486 3.66455 -4.64075
71 1 14.3151 -14.2381 2.90041 -3.61231
72 1 14.3958 -11.7577 1.06928 -4.66355
73 1 16.16 -13.2799 1.65376 -4.59565
74 1 17.004 -11.4143 2.75818 -3.63365
75 1 -18.4289 -7.54651 54.4461 -3.69296
76 1 -19.4798 -5.46806 4.58119 -4.33764
77 1 -17.4865 -9.08315 4.09715 -3.74783
78 1 -17.3901 -6.49349 1.02366 -4.62355
79 1 -16.1067 -10.8205 -0.382606 -3.98569
80 1 -16.1988 -8.05798 2.36408 -4.61045
81 1 -13.3391 -10.4724 2.20966 -4.42545
82 1 -13.4514 -8.00933 -0.509627 -4.55947
83 1 -14.8618 -9.35284 0.784948 -4.59789
84 1 -14.7529 -6.71761 3.60638 -4.56322
85 1 -12.014 -9.17264 3.78555 -4.56443
86 1 -12.0207 -6.64193 0.866591 -4.56922
87 1 -10.4955 -10.4056 54.808 -4.63514
88 1 -10.7498 -8.05971 2.21981 -4.56466
89 1 -7.76087 -10.6711 2.33084 -4.53925
90 1 -7.81875 -8.0738 -0.354204 -4.60457
91 1 -9.16333 -9.3603 1.17552 -4.48831
92 1 -9.58564 -6.64767 3.60964 -4.55277
93 1 -6.60672 -9.346 3.71448 -4.53308
94 1 -6.75463 -6.47448 0.927686 -4.57403
95 1 -5.14326 -10.5491 54.9495 -4.57107
96 1 -5.46723 -7.93624 2.17026 -4.58907
97 1 -2.66455 -10.5846 2.3513 -4.53185
98 1 -2.64787 -7.78315 -0.603822 -4.54912
99 1 -3.87901 -9.18521 1.05059 -4.54652
100 1 -3.98975 -6.80163 3.56732 -4.60618
101 1 -1.26279 -9.22012 3.72464 -4.62643
102 1 -1.36565 -6.35762 0.725544 -4.60705
103 1 0.199134 -10.6275 -0.55662 -4.54506
104 1 -0.0598511 -7.88176 2.2134 -4.54613
105 1 2.42417 -10.4428 2.35344 -4.59257
106 1 2.69022 -7.72403 54.7397 -4.57395
107 1 1.28786 -9.09865 0.745514 -4.5881
108 1 1.31477 -6.60728 3.556 -4.60154
109 1 3.96516 -9.1044 3.48604 -4.57297
110 1 3.91022 -6.25377 0.952288 -4.60418
111 1 5.1913 -10.3766 54.8348 -4.49607
112 1 5.27161 -7.72623 2.15734 -4.61333
113 1 7.72404 -10.1484 2.21897 -4.6062
114 1 8.11303 -7.48491 54.6287 -4.56173
115 1 6.64242 -8.86682 0.598362 -4.59716
116 1 6.65017 -6.29485 3.46234 -4.5938
117 1 9.2665 -9.06928 3.65576 -4.59519
118 1 9.29004 -6.34142 0.911274 -4.59271
119 1 10.5352 -10.2517 54.8595 -4.53573
120 1 10.5212 -7.71653 2.32936 -4.56528
121 1 13.2576 -10.2754 2.42194 -4.51556
122 1 13.3513 -8.10921 54.7454 -4.56016
123 1 11.9321 -9.04579 0.955291 -4.58896
124 1 12.0398 -6.53664 3.57408 -4.59224
125 1 14.6753 -8.98056 3.57647 -4.59625
126 1 14.7283 -6.78248 0.775983 -4.64525
127 1 15.9508 -10.7259 -0.432572 -4.55864
128 1 16.2575 -7.90681 2.13017 -4.54788
129 1 18.543 -8.29587 -0.467172 -3.51568
130 1 17.2665 -9.64501 1.12097 -4.60546
131 1 17.5513 -6.17503 3.06762 -4.55588
132 1 19.3774 -6.11092 -0.221149 -3.58448
133 1 -19.0726 -5.2443 2.1825 -4.27711
134 1 -18.2502 -2.12715 -0.412042 -5.08719
135 1 -19.448 -3.12086 1.35838 -3.43133
136 1 -20.5635 -1.57728 4.45181 -4.36852
137 1 -17.4897 -4.21676 3.82846 -4.94041
138 1 -17.4285 -0.606221 1.32257 -4.40862
139 1 -15.9579 -5.27467 -0.39568 -4.62232
140 1 -16.4986 -2.61284 2.28854 -4.30852
141 1 -13.4372 -5.32739 2.13969 -4.58499
142 1 -13.5567 -2.39778 -0.716567 -4.57433
143 1 -14.8025 -3.6619 1.00813 -4.54628
144 1 -14.9075 -1.32385 3.52129 -4.60628
145 1 -12.039 -3.9956 3.45657 -4.61107
146 1 -12.1632 -1.20954 0.793732 -4.5911
147 1 -10.4865 -5.19358 54.8978 -4.54628
148 1 -10.8138 -2.55852 2.0692 -4.61065
149 1 -8.20069 -5.23341 2.49023 -4.53369
150 1 -8.14225 -2.41577 54.7636 -4.57646
151 1 -9.26179 -3.87753 0.94217 -4.59635
152 1 -9.47187 -1.39307 3.602 -4.5691
153 1 -6.65002 -3.95795 3.64155 -4.59116
154 1 -6.7272 -1.21435 0.816733 -4.58483
155 1 -5.46513 -5.17702 -0.549206 -4.56035
156 1 -5.38664 -2.48218 2.19811 -4.60021
157 1 -2.70995 -5.26427 2.36135 -4.60051
158 1 -2.70314 -2.4936 -0.445936 -4.6141
159 1 -4.06865 -3.92574 0.96064 -4.61369
160 1 -4.09439 -1.18944 3.60173 -4.57459
161 1 -1.28413 -4.02866 3.74476 -4.58147
162 1 -1.35644 -1.09683 0.878722 -4.60403
163 1 0.107289 -4.99779 -0.498421 -4.60784
164 1 -0.157525 -2.47557 2.4582 -4.5901
165 1 2.52739 -4.97638 2.29984 -4.59543
166 1 2.5784 -2.30429 -0.462072 -4.58434
167 1 1.2863 -3.57228 0.957186 -4.60368
168 1 1.1244 -0.960254 3.64533 -4.58964
169 1 4.06396 -3.79654 3.53674 -4.59219
170 1 3.91713 -0.922477 0.888158 -4.63631
171 1 5.19037 -5.0531 54.7612 -4.56785
172 1 5.29967 -2.26303 2.18831 -4.61079
173 1 7.90535 -4.86731 2.23279 -4.57415
174 1 8.03712 -2.38674 -0.628171 -4.54108
175 1 6.56851 -3.56165 0.625944 -4.58717
176 1 6.61913 -0.812081 3.47251 -4.61385
177 1 9.41713 -3.77358 3.69105 -4.60393
178 1 9.38363 -1.08794 1.00035 -4.54673
179 1 10.7566 -5.04256 54.795 -4.56631
180 1 10.852 -2.45982 2.25706 -4.60821
181 1 13.5259 -5.31153 2.19759 -4.60303
182 1 13.2973 -2.48933 -0.587784 -4.56615
183 1 12.2151 -3.85194 0.852089 -4.591
184 1 12.094 -1.10076 3.65358 -4.59193
185 1 14.8473 -3.88945 3.51276 -4.58787
186 1 14.5846 -1.20846 0.887469 -4.59589
187 1 15.9017 -5.24421 -0.607249 -4.49136
188 1 16.1336 -2.62428 2.13666 -4.54897
189 1 19.1318 -5.02015 1.84794 -4.66344
190 1 19.0087 -2.65831 54.6069 -4.63857
191 1 17.4164 -3.8599 0.635071 -4.61574
192 1 17.2379 -1.30822 3.74519 -4.64073
193 1 19.9584 -2.85361 2.4984 -3.5977
194 1 19.882 -1.10715 0.841585 -4.1682
195 1 -20.4878 -1.25499 0.176837 -4.47143
196 1 -19.9328 0.543574 3.60131 -4.26421
197 1 -18.8289 2.64683 -0.0887322 -4.31001
198 1 -19.4362 0.551496 1.17073 -4.37332
199 1 -19.8267 4.43521 4.40676 -3.57811
200 1 -17.6607 1.04537 4.14864 -4.46952
201 1 -17.5406 3.9371 1.43497 -4.36725
202 1 -16.1666 0.322528 54.8773 -4.63161
203 1 -16.3885 2.40429 2.62888 -4.50717
204 1 -13.6166 0.060851 2.08334 -4.58669
205 1 -13.6907 3.08528 -0.415654 -4.57157
206 1 -14.9538 1.67756 0.925307 -4.57819
207 1 -14.8918 3.80125 3.84435 -4.60706
208 1 -12.1465 1.15618 3.46223 -4.57587
209 1 -12.2032 4.09378 1.11034 -4.60442
210 1 -10.7806 0.186233 -0.568191 -4.64549
211 1 -10.7956 2.55947 2.1599 -4.53687
212 1 -8.25945 -0.0614629 2.13476 -4.60744
213 1 -8.06295 2.78435 -0.719142 -4.57032
214 1 -9.37567 1.52141 0.795719 -4.56519
215 1 -9.48097 3.91306 3.65644 -4.59087
216 1 -6.88966 1.20103 3.58373 -4.61551
217 1 -6.78363 4.07792 0.800381 -4.62937
218 1 -5.29322 0.0740419 -0.503859 -4.56968
219 1 -5.54011 2.68567 2.30817 -4.5215
220 1 -2.81821 0.120492 2.29978 -4.57562
221 1 -2.66715 2.76338 -0.555786 -4.53233
222 1 -4.18851 1.59808 0.915365 -4.55432
223 1 -4.12796 4.05885 3.73389 -4.57799
224 1 -1.48464 1.54589 3.73981 -4.61353
225 1 -1.47414 4.15162 0.870034 -4.60435
226 1 0.0152828 0.352419 55.0277 -4.56322
227 1 -0.0936671 2.94679 2.41818 -4.62226
228 1 2.63196 0.394053 2.40234 -4.62398
229 1 2.70299 3.09569 -0.454564 -4.58562
230 1 1.39897 1.81567 1.03157 -4.60616
231 1 1.24979 4.30491 3.70757 -4.59545
232 1 4.10894 1.68911 3.7034 -4.5971
233 1 3.98067 4.52416 0.939607 -4.61251
234 1 5.2325 0.411612 -0.569782 -4.60186
235 1 5.38836 3.08976 2.22534 -4.60961
236 1 8.05065 0.559067 2.1726 -4.5786
237 1 8.04629 3.05655 54.8382 -4.61565
238 1 6.67524 1.67682 0.748676 -4.57702
239 1 7.01002 4.29818 3.5053 -4.56906
240 1 9.43316 1.71631 3.64641 -4.60131
241 1 9.4762 4.39755 0.765734 -4.61187
242 1 10.4765 0.224976 54.8153 -4.61366
243 1 10.8143 2.92818 2.13629 -4.58183
244 1 13.2887 0.275249 2.33015 -4.54491
245 1 13.3854 2.79416 -0.681618 -4.60217
246 1 11.926 1.54253 0.760401 -4.55418
247 1 12.1826 4.29363 3.48565 -4.59861
248 1 14.7041 1.62296 3.55609 -4.57766
249 1 14.9686 4.19947 0.420646 -4.34167
250 1 15.794 0.193889 -0.465262 -4.58921
251 1 15.9713 3.05454 2.14064 -4.42567
252 1 18.5273 0.0823301 2.33476 -4.61143
253 1 18.5068 2.2195 54.3247 -4.46726
254 1 17.215 1.56859 0.917421 -4.56736
255 1 17.5651 4.23319 3.57907 -4.81482
256 1 20.0761 0.907478 3.99614 -4.37103
257 1 20.1852 3.66462 -0.244007 -4.34978
258 1 20.5815 1.21247 54.5812 -3.80997
259 1 -18.908 5.58836 2.48936 -4.54116
260 1 -18.7442 8.44767 54.0725 -4.53032
261 1 -19.0437 6.6581 0.30244 -4.13023
262 1 -17.3152 6.96142 3.67049 -4.67635
263 1 -17.4589 9.52659 0.259029 -3.46
264 1 -16.8056 5.39732 -0.352955 -5.2786
265 1 -16.2961 8.421 2.121 -4.57168
266 1 -13.9162 5.22548 2.25102 -4.54347
267 1 -13.6996 8.004 -0.441768 -4.5693
268 1 -15.2042 6.67883 0.824696 -4.32067
269 1 -14.7802 9.47198 3.63959 -4.57992
270 1 -12.3623 6.41287 3.62236 -4.53834
271 1 -12.1591 9.14645 0.894787 -4.55432
272 1 -10.9418 5.38914 -0.407861 -4.5995
273 1 -10.9417 7.8815 2.45092 -4.5789
274 1 -8.23685 5.31282 2.24924 -4.61844
275 1 -8.26632 8.04857 54.8015 -4.60319
276 1 -9.58477 6.75277 0.875868 -4.60531
277 1 -9.44573 9.27794 3.55352 -4.542
278 1 -6.773 6.54439 3.64007 -4.58496
279 1 -6.8253 9.50555 0.639451 -4.63592
280 1 -5.45759 5.43024 -0.598394 -4.61186
281 1 -5.6081 8.13145 2.22485 -4.58538
282 1 -2.93783 5.43554 2.26897 -4.60308
283 1 -2.53924 8.1567 -0.401903 -4.57482
284 1 -4.1317 6.85401 0.769352 -4.62486
285 1 -4.08902 9.52623 3.36775 -4.52796
286 1 -1.49626 6.81858 3.4962 -4.55872
287 1 -1.27172 9.59377 0.901932 -4.59992
288 1 -0.0502232 5.41879 -0.40255 -4.54765
289 1 0.0177259 8.21898 2.31532 -4.58864
290 1 2.51463 5.76589 2.35953 -4.64043
291 1 2.71173 8.31304 54.8978 -4.60948
292 1 1.24868 6.96131 0.811582 -4.5952
293 1 1.18424 9.68518 3.60688 -4.55595
294 1 3.97312 7.07535 3.71619 -4.59706
295 1 4.09579 9.78104 0.888714 -4.59966
296 1 5.24651 5.9112 54.8388 -4.55123
297 1 5.33319 8.40956 2.20619 -4.60256
298 1 8.09549 5.90437 2.06324 -4.5447
299 1 8.1721 8.52028 54.7623 -4.55333
300 1 6.76445 7.31701 0.729347 -4.55795
301 1 6.68726 9.71606 3.58034 -4.6286
302 1 9.44572 7.09311 3.42451 -4.57488
303 1 9.77005 9.67834 0.755416 -4.53564
304 1 10.8663 5.66792 54.7829 -4.59714
305 1 11.0681 8.44023 2.2975 -4.37171
306 1 13.6769 5.48607 1.99017 -4.59562
307 1 13.5215 8.11144 54.4684 -4.39417
308 1 12.2379 6.95459 0.771457 -4.61722
309 1 12.5711 9.95263 3.49724 -4.94532
310 1 14.804 7.2782 3.13741 -4.3993
311 1 15.0524 9.48109 0.310501 -4.65749
312 1 16.6378 5.71967 54.723 -4.80768
313 1 16.6487 8.15504 1.99807 -4.65396
314 1 18.882 4.45825 1.62022 -4.13497
315 1 18.5275 7.06979 53.8747 -4.30829
316 1 18.2305 6.62539 0.967713 -4.19031
317 1 17.6683 8.77096 4.17279 -3.96211
318 1 19.7945 5.26597 3.64047 -4.16736
319 1 -16.7137 13.1332 4.48053 -4.14922
320 1 -16.3021 11.2357 54.7672 -4.60866
321 1 -16.0362 14.072 2.39733 -4.19078
322 1 -13.4733 10.7509 2.23625 -4.58781
323 1 -13.7792 13.1323 -0.558293 -4.68897
324 1 -15.0471 12.2411 1.21626 -4.57199
325 1 -14.4589 14.2402 4.08711 -4.70061
326 1 -11.8873 11.9041 3.66071 -4.54348
327 1 -12.5223 14.6006 0.823209 -4.66083
328 1 -11.0962 10.6384 54.6892 -4.55231
329 1 -10.8748 13.2867 1.96957 -4.52217
330 1 -8.1799 10.7698 2.06769 -4.54598
331 1 -8.02201 13.5532 54.7161 -4.57064
332 1 -9.49708 12.0657 0.540286 -4.57651
333 1 -9.42275 14.2809 3.49826 -4.53345
334 1 -6.70227 11.8846 3.65025 -4.55128
335 1 -6.57333 14.7231 0.841862 -4.52745
336 1 -5.32261 10.8372 -0.636437 -4.55222
337 1 -5.45 13.485 2.51222 -4.59578
338 1 -2.72693 10.8601 2.23956 -4.5434
339 1 -2.69475 13.5313 -0.349168 -4.60426
340 1 -4.23479 12.1898 0.995765 -4.61602
341 1 -4.07671 14.867 3.74592 -4.55568
342 1 -1.62057 12.1835 3.73453 -4.48207
343 1 -1.15364 14.6584 1.02213 -4.579
344 1 0.0563516 11.0245 -0.323092 -4.56777
345 1 0.0725217 13.3123 2.42187 -4.58353
346 1 2.79606 11.0299 2.36152 -4.56613
347 1 2.88987 13.5864 54.7897 -4.55632
348 1 1.5888 12.2768 0.893492 -4.5892
349 1 1.44927 14.7869 3.77044 -4.60848
350 1 4.29435 12.4619 3.56527 -4.58876
351 1 4.26019 14.7963 0.952927 -4.53462
352 1 5.61516 10.9894 54.7888 -4.58115
353 1 5.77776 13.8755 2.42855 -4.42918
354 1 8.26709 10.9995 2.29635 -4.55697
355 1 8.17146 13.644 54.7252 -4.43997
356 1 6.94804 12.3087 0.848311 -4.52955
357 1 7.02384 15.0039 4.06469 -4.6013
358 1 9.60456 12.3104 3.60254 -4.33889
359 1 9.54705 15.2904 0.540615 -4.7883
360 1 10.7407 11.1139 54.4689 -4.37487
361 1 10.6959 13.8638 2.12418 -4.64548
362 1 13.2577 10.6259 1.31578 -4.2724
363 1 13.2785 13.5091 54.1607 -4.26547
364 1 11.9711 12.535 0.718387 -4.77835
365 1 11.6953 14.5885 4.24995 -4.21909
366 1 14.4053 11.4751 4.25576 -4.35191
367 1 13.8318 14.0943 1.04117 -4.28151
368 1 16.7674 10.8419 54.5176 -4.36993
369 1 14.8597 12.107 2.10848 -4.64929
370 1 16.7052 10.6598 1.5152 -4.07597
371 1 -14.3011 15.6394 2.16005 -4.15695
372 1 -13.2753 16.291 4.1398 -4.14208
373 1 -10.0663 16.995 54.0768 -4.39892
374 1 -8.37344 15.6588 1.9186 -4.61489
375 1 -8.28057 18.5087 -0.46339 -4.11318
376 1 -9.74911 17.3318 1.07585 -4.42203
377 1 -7.26345 16.7888 3.60792 -4.67288
378 1 -8.55831 19.1311 1.86692 -4.03899
379 1 -5.25365 16.345 54.8883 -4.58073
380 1 -6.14346 18.3734 2.15584 -4.52446
381 1 -2.82833 15.935 2.12843 -4.5249
382 1 -2.47946 19.0346 -0.374367 -4.53433
383 1 -4.13498 17.7046 0.930559 -4.36171
384 1 -4.79795 19.3719 3.77263 -3.60942
385 1 -1.45194 17.2579 3.64252 -4.46767
386 1 -0.619494 19.9336 0.838681 -3.68099
387 1 0.269587 15.8799 -0.486219 -4.51616
388 1 0.196503 18.4011 2.4478 -4.74561
389 1 2.82668 16.1939 2.34434 -4.55826
390 1 2.87106 18.9447 -0.0880176 -4.54835
391 1 1.52238 17.2924 0.79908 -4.4799
392 1 1.32991 19.8998 3.84498 -4.5542
393 1 4.08012 17.3058 3.86154 -4.61253
394 1 2.8497 20.166 2.08226 -4.14296
395 1 5.24706 16.3513 54.7399 -4.40969
396 1 4.9954 19.2255 2.78644 -4.42483
397 1 8.06574 16.9489 1.24049 -4.46679
398 1 9.43129 18.6201 0.378739 -4.41681
399 1 6.07694 18.1742 0.706417 -4.43104
400 1 5.88239 20.0566 4.90127 -3.6701
401 1 8.45638 16.7434 3.63943 -4.59642
402 1 10.532 16.1727 53.8273 -4.1932
403 1 12.3207 15.6087 2.12338 -4.26655
404 1 11.2613 17.064 0.521149 -4.22553
405 1 1.51594 21.0076 0.314856 -4.22954
406 1 -12.7632 -16.5165 4.67206 -4.04345
407 1 -8.07427 -18.2844 4.76185 -3.53831
408 1 -9.46494 -17.2806 9.43123 -3.70617
409 1 -5.72344 -19.6858 9.7558 -3.90614
410 1 -6.7488 -17.3017 6.36808 -4.50637
411 1 -5.12552 -18.582 7.76998 -4.65585
412 1 -2.54424 -18.9095 5.14173 -4.52456
413 1 -3.11378 -19.6288 7.32089 -3.60748
414 1 -4.09099 -17.1516 9.26264 -4.66341
415 1 -1.39585 -19.8694 8.92029 -4.54509
416 1 -1.31111 -17.3358 6.22402 -4.64417
417 1 1.23441 -21.0469 3.4148 -4.06305
418 1 0.245282 -18.7551 7.46697 -4.42705
419 1 2.47365 -18.2318 4.60814 -4.57458
420 1 1.09538 -19.9934 5.46792 -4.34489
421 1 1.53889 -17.2632 8.94527 -4.47632
422 1 5.26717 -19.5967 9.49709 -4.06478
423 1 4.00681 -17.32 6.34533 -4.42591
424 1 5.83222 -18.2851 7.61232 -4.68921
425 1 8.42633 -18.012 4.1789 -4.50315
426 1 7.81405 -18.7144 6.31711 -3.46628
427 1 7.01566 -16.5838 8.73618 -4.67568
428 1 9.77896 -17.3375 6.0673 -4.4897
429 1 13.2911 -16.38 9.80573 -4.17837
430 1 -17.0887 -11.0053 7.00975 -3.69469
431 1 -15.4018 -12.5508 7.38595 -3.79524
432 1 -13.2462 -15.2889 6.62905 -4.18954
433 1 -13.2047 -13.2536 5.26229 -4.68452
434 1 -15.2707 -14.3897 5.80314 -4.35286
435 1 -14.1621 -11.6619 9.13004 -4.72434
436 1 -12.2764 -14.6664 8.84502 -4.4114
437 1 -11.7014 -11.8381 6.39085 -4.4756
438 1 -10.4762 -16.1653 4.57917 -4.12645
439 1 -10.6319 -13.3462 7.78309 -4.61057
440 1 -8.22022 -16.0879 7.77498 -4.65946
441 1 -7.93392 -13.4431 5.11673 -4.56333
442 1 -9.46048 -14.7822 6.29233 -4.54883
443 1 -9.45698 -11.8819 9.16696 -4.59155
444 1 -6.98347 -14.7056 9.1901 -4.63192
445 1 -6.57371 -12.0139 6.4899 -4.61973
446 1 -5.29256 -16.1005 4.84136 -4.63521
447 1 -5.35968 -13.4403 7.87076 -4.57365
448 1 -2.62094 -16.1367 7.7331 -4.55557
449 1 -2.61786 -13.4059 5.04914 -4.6103
450 1 -4.0344 -14.8176 6.3158 -4.60232
451 1 -4.03242 -11.946 9.31298 -4.5882
452 1 -1.39272 -14.7115 9.13512 -4.59697
453 1 -1.15098 -12.0291 6.35307 -4.57193
454 1 -0.0263818 -15.9451 4.74409 -4.5167
455 1 0.105796 -13.3575 7.90039 -4.60708
456 1 2.78334 -15.8995 7.67861 -4.57535
457 1 2.63343 -13.2271 5.15582 -4.5916
458 1 1.34331 -14.6799 6.34341 -4.57479
459 1 1.57395 -11.9995 9.16758 -4.60473
460 1 3.87042 -14.4352 9.05361 -4.55341
461 1 3.97284 -11.7308 6.37783 -4.6111
462 1 5.43895 -15.9196 5.11126 -4.60838
463 1 5.39461 -12.9862 7.77534 -4.58964
464 1 8.50812 -15.6563 7.06792 -4.53968
465 1 8.02324 -12.9954 4.88118 -4.53888
466 1 6.71367 -14.2843 6.32347 -4.57028
467 1 6.84683 -11.6153 9.06832 -4.62037
468 1 9.58375 -14.5064 8.90801 -4.59698
469 1 9.32002 -11.8536 6.43508 -4.62031
470 1 10.9361 -15.9363 4.64364 -4.42658
471 1 10.9074 -13.1692 7.59368 -4.58516
472 1 14.0336 -15.5218 7.7179 -4.13509
473 1 13.2484 -13.4122 4.87357 -4.66693
474 1 12.0716 -14.8345 6.46497 -4.45034
475 1 12.0962 -11.8601 9.24852 -4.42998
476 1 14.4715 -14.2627 9.72005 -4.71431
477 1 14.6383 -12.0571 6.32475 -4.48457
478 1 15.6196 -13.7262 7.74693 -4.04697
479 1 16.5631 -13.1806 10.0361 -4.02944
480 1 -18.6214 -7.55606 5.39028 -3.80961
481 1 -19.2432 -6.53559 10.3332 -3.47964
482 1 -17.249 -9.75664 8.98258 -4.63429
483 1 -17.2455 -6.48729 6.97215 -4.69255
484 1 -15.8641 -10.414 5.09995 -4.59511
485 1 -15.9307 -8.02529 8.0538 -4.6224
486 1 -12.9707 -10.3369 7.63762 -4.61327
487 1 -13.2667 -7.61242 5.10185 -4.56073
488 1 -14.5171 -8.97821 6.43807 -4.63786
489 1 -14.7537 -6.55366 9.3248 -4.53753
490 1 -11.8545 -9.10763 9.37263 -4.57199
491 1 -11.9485 -6.35291 6.49733 -4.59622
492 1 -10.4851 -10.577 4.81808 -4.57594
493 1 -10.6614 -7.96769 7.6823 -4.52337
494 1 -7.9053 -10.5564 7.86469 -4.55405
495 1 -8.0427 -7.85559 5.08107 -4.58908
496 1 -9.31134 -9.29782 6.39386 -4.59904
497 1 -9.39264 -6.54051 9.24503 -4.56493
498 1 -6.69602 -9.38655 9.41451 -4.5659
499 1 -6.49799 -6.60826 6.36165 -4.5804
500 1 -5.30635 -10.6316 5.09725 -4.6039
501 1 -5.43057 -7.92157 8.00184 -4.60959
502 1 -2.69058 -10.846 7.65 -4.58132
503 1 -2.72244 -7.90547 5.15086 -4.55419
504 1 -4.10486 -9.31019 6.59736 -4.59843
505 1 -3.90424 -6.5918 9.25021 -4.6175
506 1 -1.35193 -9.63553 9.11063 -4.55655
507 1 -1.20112 -6.66991 6.35502 -4.57732
508 1 0.122 -10.5105 5.17169 -4.5883
509 1 -0.106729 -7.92128 7.90705 -4.5657
510 1 2.85257 -10.4773 7.9277 -4.58105
511 1 2.77495 -7.74355 4.96013 -4.60824
512 1 1.49962 -9.03245 6.44464 -4.58633
513 1 1.21315 -6.63889 9.3423 -4.58313
514 1 4.17199 -9.04707 9.17893 -4.56598
515 1 3.89593 -6.3773 6.46207 -4.55506
516 1 5.32876 -10.2246 5.10184 -4.59467
517 1 5.3373 -7.7541 7.65636 -4.60614
518 1 8.15288 -10.261 7.70924 -4.57618
519 1 7.97583 -7.57695 4.91465 -4.61191
520 1 6.79036 -8.97108 6.34773 -4.55834
521 1 6.66988 -6.31768 8.98057 -4.62972
522 1 9.7042 -8.99877 9.0069 -4.59493
523 1 9.45874 -6.38262 6.44148 -4.5577
524 1 10.646 -10.4243 5.09061 -4.62594
525 1 11.0967 -7.56086 7.70274 -4.59299
526 1 13.5174 -10.6187 7.77573 -4.55829
527 1 13.4765 -7.74844 5.06316 -4.59389
528 1 12.2451 -9.26832 6.3945 -4.56121
529 1 12.1697 -6.27987 9.39634 -4.54768
530 1 14.9927 -9.22573 9.11333 -4.49753
531 1 15.0364 -6.44147 6.2515 -4.53642
532 1 15.8605 -10.6648 4.731 -4.63456
533 1 16.339 -7.79488 7.60898 -4.61159
534 1 18.68 -7.39302 4.79742 -3.87424
535 1 17.3868 -9.02151 5.922 -3.67682
536 1 17.5275 -6.49897 9.32713 -4.66648
537 1 19.3349 -5.42902 5.93156 -3.65672
538 1 -18.9473 -5.45153 8.18982 -4.46556
539 1 -18.4318 -2.32202 4.8856 -4.47937
540 1 -19.3672 -3.86622 6.39406 -4.32035
541 1 -20.8884 -1.85457 6.8967 -3.67753
542 1 -17.4086 -3.92597 9.45414 -4.56017
543 1 -17.3035 -1.13373 6.5797 -4.52897
544 1 -15.9175 -5.40217 5.22352 -4.45942
545 1 -16.1275 -2.66279 7.88119 -4.55797
546 1 -13.514 -5.25171 7.83593 -4.54741
547 1 -13.4226 -2.64468 4.7211 -4.54971
548 1 -14.7001 -3.76593 6.37667 -4.59361
549 1 -14.7486 -1.39908 9.18164 -4.60124
550 1 -12.0414 -4.07249 9.12604 -4.596
551 1 -12.0364 -1.35398 6.3359 -4.58789
552 1 -10.5767 -5.05582 5.03519 -4.57764
553 1 -10.7263 -2.73147 7.72173 -4.61832
554 1 -7.80819 -5.33652 7.79311 -4.61404
555 1 -8.02088 -2.68479 5.02667 -4.53898
556 1 -9.16168 -3.94529 6.50653 -4.5627
557 1 -9.46113 -1.40687 9.14991 -4.63493
558 1 -6.60687 -3.79887 9.09565 -4.57813
559 1 -6.76936 -1.38741 6.35885 -4.56035
560 1 -5.21127 -5.29582 4.87347 -4.61822
561 1 -5.26515 -2.66762 7.59516 -4.55473
562 1 -2.57319 -5.27061 7.75032 -4.58662
563 1 -2.69599 -2.63765 4.89821 -4.60536
564 1 -3.89072 -4.02349 6.34386 -4.57262
565 1 -4.05313 -1.2031 9.13685 -4.53171
566 1 -1.27836 -3.96417 9.32963 -4.58969
567 1 -1.28028 -1.24113 6.27217 -4.57428
568 1 0.208766 -5.20706 5.13708 -4.61324
569 1 -0.0838536 -2.50825 7.84687 -4.5959
570 1 2.51471 -5.23023 7.9047 -4.56212
571 1 2.54414 -2.50272 4.79034 -4.60491
572 1 1.40568 -3.69243 6.50061 -4.59861
573 1 1.3893 -1.24773 9.19336 -4.63093
574 1 3.76525 -3.69351 9.07222 -4.54074
575 1 4.01122 -1.26968 6.23038 -4.60611
576 1 5.33328 -5.07447 5.01581 -4.55348
577 1 5.27783 -2.67493 7.69393 -4.5443
578 1 8.06891 -4.97598 7.68394 -4.61285
579 1 7.95514 -2.29237 4.78452 -4.586
580 1 6.72267 -3.81249 6.21812 -4.54761
581 1 6.65493 -1.37882 9.05205 -4.55311
582 1 9.38941 -3.67224 9.13273 -4.57431
583 1 9.29106 -1.0394 6.43269 -4.60836
584 1 10.732 -5.21697 5.00686 -4.60011
585 1 10.6932 -2.49282 7.67053 -4.57902
586 1 13.4421 -5.32311 7.69327 -4.58974
587 1 13.4581 -2.54838 4.95654 -4.58316
588 1 12.0791 -3.89676 6.33593 -4.60428
589 1 11.8246 -0.940306 9.17995 -4.546
590 1 14.5754 -3.64935 9.01346 -4.58286
591 1 14.7625 -1.165 6.17902 -4.56411
592 1 16.4558 -5.17214 4.82804 -4.43161
593 1 16.0259 -2.49471 7.53023 -4.38934
594 1 18.7268 -4.75848 8.13675 -3.87769
595 1 18.9628 -2.54134 4.6106 -4.42946
596 1 17.6491 -3.76011 6.32331 -5.00242
597 1 17.1316 -1.02988 8.98721 -4.44171
598 1 19.9094 -2.49101 9.61079 -3.86608
599 1 20.3032 -0.799707 5.64165 -4.35036
600 1 -21.062 0.41668 5.76778 -4.11187
601 1 -18.6063 0.14879 8.02913 -4.70778
602 1 -18.4238 2.82458 5.48679 -4.63963
603 1 -19.8486 1.94606 7.15468 -4.51968
604 1 -19.2913 3.80487 8.54632 -4.32832
605 1 -17.3117 1.54473 9.42471 -4.7009
606 1 -17.5683 4.49374 7.0174 -4.97636
607 1 -15.8244 -0.0664596 5.22684 -4.53719
608 1 -16.0286 2.68438 7.73299 -4.39504
609 1 -13.2497 -0.0691456 7.85301 -4.59105
610 1 -13.1656 2.6263 5.00859 -4.57673
611 1 -14.4483 1.31994 6.47317 -4.56739
612 1 -14.7203 3.95368 9.16405 -4.65222
613 1 -12.0269 1.40706 9.15199 -4.57894
614 1 -12.1065 4.27144 6.51751 -4.56164
615 1 -10.6996 -0.00286242 4.91285 -4.58338
616 1 -10.6859 2.81676 7.81197 -4.58394
617 1 -8.05325 -0.100371 7.73049 -4.57905
618 1 -8.08265 2.48824 5.14572 -4.59629
619 1 -9.51589 1.23475 6.52995 -4.58204
620 1 -9.34122 4.05043 9.17788 -4.51968
621 1 -6.65134 1.14215 9.22743 -4.56134
622 1 -6.55723 3.85702 6.47071 -4.59761
623 1 -5.53248 0.0219438 5.0147 -4.58907
624 1 -5.34627 2.57456 8.00203 -4.61125
625 1 -2.58208 0.0758837 7.74049 -4.62246
626 1 -2.68713 2.83148 5.19751 -4.59818
627 1 -4.07695 1.33971 6.34274 -4.60214
628 1 -4.00183 4.01816 9.30383 -4.60424
629 1 -1.24338 1.33822 9.19648 -4.56974
630 1 -1.10795 4.16523 6.48581 -4.55627
631 1 -0.0647336 0.294904 5.15076 -4.5853
632 1 0.0678442 2.84429 8.00648 -4.56576
633 1 2.85415 -0.0593395 7.81048 -4.5834
634 1 2.67439 2.84704 5.05653 -4.59737
635 1 1.45042 1.4876 6.5338 -4.59571
636 1 1.54041 4.23091 9.13133 -4.60459
637 1 4.17473 1.36729 9.1817 -4.59969
638 1 4.05363 4.33514 6.31818 -4.60512
639 1 5.29431 0.316592 5.12786 -4.5478
640 1 5.21816 2.92383 7.76196 -4.57661
641 1 7.91382 0.191849 7.89117 -4.62084
642 1 8.05962 2.92288 5.04409 -4.55975
643 1 6.63245 1.54402 6.43511 -4.55563
644 1 6.6264 4.23587 8.9038 -4.53661
645 1 9.37649 1.66986 9.14292 -4.56607
646 1 9.44794 4.43554 6.13457 -4.58603
647 1 10.6059 0.157335 4.94355 -4.62281
648 1 10.577 2.89168 7.46643 -4.58966
649 1 13.2288 -0.0833891 7.52016 -4.55656
650 1 13.4146 2.92318 4.98063 -4.64989
651 1 11.9549 1.46896 6.29641 -4.61552
652 1 11.9754 4.04293 8.8744 -4.57773
653 1 14.4398 1.30669 8.93266 -4.57579
654 1 14.7871 4.31769 6.20531 -4.57101
655 1 16.0951 0.355414 4.91828 -4.57316
656 1 15.7424 2.75699 7.65323 -4.35987
657 1 18.7294 -0.384775 7.34124 -4.57635
658 1 18.4176 2.41518 4.70075 -4.55303
659 1 17.2937 1.38837 6.58405 -4.56099
660 1 17.2428 4.23384 8.99222 -4.88526
661 1 20.0108 1.10857 8.46723 -4.42063
662 1 20.0464 3.72913 5.68976 -4.42738
663 1 21.0505 1.48442 6.19115 -4.05326
664 1 -19.9209 6.05633 8.53014 -4.04579
665 1 -18.3229 8.15495 5.40075 -3.56107
666 1 -19.2265 5.99253 6.10387 -4.40743
667 1 -17.6014 6.97239 9.24881 -4.88285
668 1 -17.2947 9.82567 6.71948 -4.53235
669 1 -16.2775 5.23872 5.07066 -4.3441
670 1 -16.0828 8.30806 8.09343 -4.36532
671 1 -13.6555 5.4526 7.70885 -4.53808
672 1 -13.4863 8.08818 5.05317 -4.56948
673 1 -15.0661 6.95455 6.29872 -4.53492
674 1 -14.7763 9.36743 9.60744 -4.60347
675 1 -12.2223 6.79032 9.18627 -4.52839
676 1 -12.1143 9.34278 6.53998 -4.59058
677 1 -10.7271 5.44958 4.97678 -4.59421
678 1 -10.721 7.99758 7.86387 -4.58054
679 1 -8.0068 5.24798 7.73368 -4.60497
680 1 -7.98775 8.1094 4.99033 -4.62024
681 1 -9.22356 6.72655 6.39774 -4.55747
682 1 -9.68568 9.43836 9.20803 -4.5194
683 1 -6.73521 6.79804 9.20003 -4.57018
684 1 -6.60125 9.34759 6.43578 -4.58937
685 1 -5.32429 5.36598 5.14959 -4.58587
686 1 -5.26684 8.11904 7.87721 -4.64421
687 1 -2.5952 5.32787 7.9404 -4.62118
688 1 -2.73027 8.17776 4.83316 -4.55653
689 1 -3.97743 6.77797 6.4963 -4.52235
690 1 -4.08575 9.55241 9.2585 -4.54996
691 1 -1.33124 6.71208 9.30831 -4.62437
692 1 -1.42273 9.37283 6.31079 -4.56785
693 1 -0.220726 5.73054 5.0441 -4.5317
694 1 -0.15541 8.15338 7.84629 -4.62501
695 1 2.79761 5.68793 7.74261 -4.57955
696 1 2.5635 8.37464 5.07079 -4.64774
697 1 1.33781 6.92222 6.47933 -4.58152
698 1 1.15643 9.53946 9.27402 -4.59268
699 1 4.10703 6.95178 9.16603 -4.58309
700 1 4.03567 9.78036 6.30575 -4.58282
701 1 5.47933 5.65048 4.87172 -4.60019
702 1 5.35175 8.23201 7.63322 -4.60018
703 1 8.08627 5.69753 7.72387 -4.59003
704 1 8.10431 8.36034 4.83843 -4.59513
705 1 6.76831 7.0403 6.21036 -4.63204
706 1 6.76543 9.56988 9.02488 -4.60433
707 1 9.45155 7.25977 8.88867 -4.56596
708 1 9.45087 9.85403 6.04869 -4.55929
709 1 10.8785 5.74326 4.70868 -4.58322
710 1 10.9443 8.52289 7.39477 -4.55631
711 1 13.2327 5.48226 7.50684 -4.58961
712 1 13.8123 8.44854 4.87287 -4.24359
713 1 12.2582 7.11482 6.0385 -4.57952
714 1 12.1079 9.45704 9.2573 -4.36574
715 1 14.4169 6.56138 9.24421 -4.59417
716 1 15.1044 9.43163 6.62149 -4.92407
717 1 15.8983 5.63846 4.52916 -4.19796
718 1 15.9909 7.63138 7.8115 -4.23854
719 1 18.2296 4.81815 6.84934 -4.14726
720 1 19.3937 7.22955 4.95623 -4.03536
721 1 17.279 6.9164 5.90288 -5.28202
722 1 17.3392 9.11991 9.19577 -4.27682
723 1 19.4163 6.71657 7.24617 -4.05977
724 1 -16.5337 11.6146 8.01905 -4.1575
725 1 -16.0818 10.9556 4.99399 -4.48027
726 1 -15.9856 13.591 6.80539 -4.23245
727 1 -13.2862 10.5567 8.22823 -4.40408
728 1 -13.0651 12.929 5.31193 -3.9831
729 1 -14.5982 11.6294 6.64789 -5.03268
730 1 -14.1144 14.7891 7.88189 -4.09153
731 1 -11.95 12.1148 9.20936 -4.55767
732 1 -11.942 14.5511 6.75636 -5.42503
733 1 -10.5586 10.4915 5.13351 -4.56569
734 1 -10.3307 13.2444 8.05878 -4.35007
735 1 -7.97918 10.5825 7.98644 -4.60688
736 1 -7.84895 13.3007 5.02052 -4.54081
737 1 -9.13582 11.8573 6.46014 -4.61118
738 1 -9.21454 15.0161 9.15816 -4.58757
739 1 -6.89278 12.2223 9.31708 -4.5746
740 1 -6.92187 14.9225 6.43956 -4.59652
741 1 -5.26167 10.7857 5.0584 -4.58877
742 1 -5.67121 13.5846 7.89419 -4.56622
743 1 -2.84693 10.6488 7.68412 -4.55375
744 1 -2.83073 13.3682 5.19749 -4.52985
745 1 -4.19268 12.2131 6.6591 -4.56262
746 1 -4.12762 14.8133 9.21643 -4.64105