ITEM: TIMESTEP
240000
ITEM: NUMBER OF ATOMS
4050
ITEM: BOX BOUNDS ss ss pp
-2.0467461232486485e+01 2.0561501927114744e+01
-2.0346995146851491e+01 2.0532976528526284e+01
-3.2586000000000004e+00 5.7568600000000004e+01
ITEM: ATOMS id type x y z c_peratom
1 1 -12.0008 -15.2928 -1.02175 -3.86912
2 1 -7.55169 -17.8537 -2.76448 -4.23253
3 1 -9.07549 -17.3261 0.893493 -4.58123
4 1 -7.13939 -18.6666 0.840488 -3.69263
5 1 -6.37069 -16.2476 -1.63791 -4.73246
6 1 -5.25262 -17.9168 -0.37381 -4.65404
7 1 -2.68274 -18.1763 -3.09541 -4.58581
8 1 -4.88844 -18.9671 -2.56528 -3.90562
9 1 -3.8934 -16.71 1.18317 -4.43316
10 1 -0.941192 -18.9613 1.54944 -4.33
11 1 -1.58396 -16.3382 -2.07228 -4.45308
12 1 0.416437 -19.5918 -1.41778 -4.62868
13 1 -0.437085 -17.6521 -0.354282 -4.58151
14 1 3.19109 -17.5533 57.5301 -4.67269
15 1 2.60457 -19.1871 -1.80665 -3.77683
16 1 1.19277 -16.4833 0.734563 -4.60093
17 1 3.23342 -19.4347 0.459847 -4.45607
18 1 3.86498 -16.2 -1.53927 -4.67426
19 1 5.0099 -17.8469 -0.30985 -4.43674
20 1 6.75922 -18.1243 -1.95856 -4.29993
21 1 9.41338 -17.0617 0.521827 -4.30386
22 1 6.2483 -16.5777 1.20221 -4.52671
23 1 8.90373 -16.8926 -1.64482 -4.08976
24 1 11.3151 -15.7496 0.97453 -3.64243
25 1 -14.5364 -12.6558 -1.22378 -4.17658
26 1 -15.259 -13.7229 0.759507 -4.24668
27 1 -13.9431 -15.8045 0.221908 -4.35211
28 1 -12.5467 -13.4932 57.2937 -4.4615
29 1 -14.0729 -14.7958 -2.10851 -4.42439
30 1 -14.1414 -11.5708 0.80216 -4.21834
31 1 -11.378 -13.9924 0.851143 -4.85996
32 1 -11.5901 -11.8434 -2.28828 -4.44309
33 1 -10.2555 -15.7225 57.4616 -3.99033
34 1 -10.1462 -12.6929 -0.613803 -4.36772
35 1 -7.9933 -15.4001 -0.143173 -4.54447
36 1 -7.53706 -12.9208 -3.17317 -4.58723
37 1 -8.98081 -14.2922 -1.98768 -4.63387
38 1 -8.86755 -11.5853 1.17557 -4.50229
39 1 -6.58123 -14.2369 1.40375 -4.55756
40 1 -6.35714 -11.5392 -1.62753 -4.5696
41 1 -4.95761 -15.343 57.5075 -4.51806
42 1 -5.2687 -12.9154 0.0167199 -4.51028
43 1 -2.70588 -15.3258 -0.330116 -4.52896
44 1 -2.41215 -12.973 57.4914 -4.53531
45 1 -3.89738 -13.9266 -1.76584 -4.52799
46 1 -3.8555 -11.5054 1.35185 -4.60221
47 1 -1.42506 -13.9281 1.07241 -4.59578
48 1 -1.48814 -11.39 -1.89315 -4.57167
49 1 0.148717 -15.5732 57.2401 -4.50937
50 1 -0.11468 -12.5769 -0.444558 -4.54661
51 1 2.36182 -14.8375 -0.42054 -4.53924
52 1 2.65756 -12.6522 57.4349 -4.59994
53 1 1.01784 -13.8262 -2.11297 -4.51828
54 1 1.212 -11.3468 1.15374 -4.5453
55 1 3.78312 -14.0222 1.28126 -4.50142
56 1 3.8439 -11.5295 -1.7568 -4.5314
57 1 5.20601 -14.9519 -3.01088 -4.62815
58 1 5.2133 -12.6936 -0.235197 -4.56828
59 1 7.90912 -15.3433 0.0410767 -4.97904
60 1 8.02977 -12.6196 -3.11949 -4.5335
61 1 6.73515 -13.889 -1.55803 -4.42254
62 1 6.46768 -11.2931 1.32659 -4.52409
63 1 8.96392 -13.8903 1.72413 -4.42566
64 1 8.9965 -11.1722 -1.55408 -4.47306
65 1 10.2606 -15.532 -3.0911 -4.49564
66 1 10 -12.3425 0.150389 -4.40285
67 1 12.5951 -15.0925 -0.936734 -4.63132
68 1 12.1698 -12.3509 -2.61878 -4.32671
69 1 10.7945 -13.7913 -1.50542 -4.62053
70 1 11.6117 -11.2054 1.57309 -4.63463
71 1 13.8748 -13.3299 -0.0682561 -3.89829
72 1 13.9254 -11.1384 -1.19619 -5.41377
73 1 15.8917 -12.5799 -1.2714 -4.07027
74 1 16.0309 -10.4585 -0.165783 -4.05228
75 1 -17.4266 -7.784 56.7948 -4.2443
76 1 -18.5857 -6.10159 1.80922 -4.21814
77 1 -16.5869 -8.81498 1.53974 -3.56949
78 1 -16.537 -6.74714 -1.92723 -4.38247
79 1 -15.015 -11.0606 -3.12844 -4.17486
80 1 -15.423 -8.26586 -0.456559 -4.5538
81 1 -12.4137 -10.4793 -0.420656 -4.52381
82 1 -12.8406 -7.96153 57.3366 -4.58042
83 1 -13.9099 -9.43465 -1.85792 -4.60956
84 1 -13.9595 -6.90951 0.806982 -4.4925
85 1 -11.3011 -8.78775 0.831399 -4.46975
86 1 -11.6233 -6.38404 -2.23151 -4.543
87 1 -10.2417 -10.2933 57.328 -4.61067
88 1 -10.1869 -7.39597 -0.663955 -4.51773
89 1 -7.73421 -10.1786 -0.237463 -4.53165
90 1 -7.62159 -8.10491 57.4601 -4.5357
91 1 -9.04253 -9.03465 -1.90975 -4.51518
92 1 -9.01071 -6.42617 1.10568 -4.44552
93 1 -6.6238 -9.00157 1.39732 -4.53333
94 1 -6.55399 -6.65277 -1.90194 -4.44348
95 1 -5.0009 -10.3361 57.6528 -4.50082
96 1 -5.5221 -7.62311 -0.188991 -4.46887
97 1 -2.66069 -10.2546 -0.263373 -4.51014
98 1 -2.78231 -7.53721 -2.9934 -4.45466
99 1 -4.08615 -8.94243 -1.53011 -4.57847
100 1 -4.04545 -6.4483 1.35249 -4.54535
101 1 -1.2631 -8.92545 1.24447 -4.53333
102 1 -1.28354 -6.44878 -1.62202 -4.54583
103 1 -0.00949756 -10.1467 57.6403 -4.54196
104 1 0.0497147 -7.50927 0.0325897 -4.5444
105 1 2.59958 -10.0494 -0.244378 -4.58266
106 1 2.39214 -7.49979 57.5747 -4.5385
107 1 1.15164 -8.8179 -1.61485 -4.5542
108 1 1.28948 -6.09669 1.41093 -4.55285
109 1 3.80949 -8.72882 1.34106 -4.5294
110 1 3.73747 -6.20809 -1.85417 -4.57622
111 1 5.13826 -10.2805 -3.29382 -4.57416
112 1 5.11588 -7.34157 -0.211883 -4.5008
113 1 7.58644 -9.83337 -0.127473 -4.56428
114 1 7.46124 -7.32454 -3.25803 -4.53595
115 1 6.21716 -8.76433 -1.77586 -4.53946
116 1 6.38234 -6.15245 1.43541 -4.55271
117 1 9.02072 -8.71133 1.34547 -4.53177
118 1 8.66906 -6.153 -1.58285 -4.53105
119 1 10.0944 -9.90179 -3.17664 -4.50152
120 1 10.0776 -7.28208 -0.064971 -4.50094
121 1 12.7249 -9.65704 0.266756 -4.39914
122 1 12.7837 -7.68666 -3.1699 -4.46752
123 1 11.3738 -8.69492 -1.43653 -4.48937
124 1 11.347 -6.27171 1.67791 -4.53042
125 1 14.2306 -8.20923 1.45712 -4.55026
126 1 13.6528 -6.21042 -1.53024 -4.56767
127 1 15.0316 -10.1882 -3.20616 -4.37037
128 1 15.3757 -7.33905 -0.344256 -4.65815
129 1 16.4879 -6.7041 57.6321 -4.46959
130 1 16.4968 -8.86403 -1.90418 -4.36559
131 1 17.0052 -5.66374 0.305988 -3.53322
132 1 18.3784 -5.21829 57.5991 -3.88543
133 1 -18.0878 -5.46363 -0.669221 -4.11279
134 1 -17.9077 -2.72166 -2.76626 -4.97463
135 1 -19.193 -3.24893 -0.864638 -4.26832
136 1 -17.8742 -2.16779 0.725148 -4.65512
137 1 -16.5633 -5.06803 1.062 -4.41369
138 1 -16.6449 -0.869813 -2.0347 -4.57943
139 1 -15.1789 -5.26515 -3.35549 -4.57
140 1 -15.8325 -2.263 -0.329488 -4.43908
141 1 -13.006 -5.20439 -0.456808 -4.48901
142 1 -12.9808 -2.37105 57.6179 -4.49842
143 1 -14.2999 -3.70289 -1.73226 -4.4541
144 1 -14.4297 -1.19795 1.23221 -4.57238
145 1 -11.7665 -3.88691 1.02989 -4.57478
146 1 -11.5864 -1.11853 -1.69828 -4.49585
147 1 -10.1811 -5.0887 57.2005 -4.60783
148 1 -10.4069 -2.65187 -0.421438 -4.57969
149 1 -7.71748 -5.24459 -0.498948 -4.53119
150 1 -7.79885 -2.5264 -3.33779 -4.56579
151 1 -9.02944 -3.89524 -1.93748 -4.57235
152 1 -9.14232 -1.33194 1.11487 -4.47204
153 1 -6.61024 -3.92018 1.13175 -4.53198
154 1 -6.49235 -1.4236 -1.76188 -4.58765
155 1 -5.22813 -5.26608 57.6452 -4.56997
156 1 -5.11634 -2.6949 -0.145374 -4.56039
157 1 -2.50977 -5.13351 -0.0864158 -4.56233
158 1 -2.67441 -2.43882 57.5937 -4.56174
159 1 -3.80114 -4.03309 -1.71246 -4.53975
160 1 -3.91673 -1.28795 1.34596 -4.5839
161 1 -1.19893 -3.60507 1.17807 -4.55163
162 1 -1.32611 -1.23538 -1.62489 -4.51934
163 1 -0.150401 -5.07547 -3.17335 -4.53186
164 1 0.130069 -2.20618 -0.222485 -4.48987
165 1 2.54153 -4.84809 -0.278222 -4.51147
166 1 2.4724 -2.189 57.3251 -4.53505
167 1 1.20771 -3.58085 -1.86177 -4.54248
168 1 1.44017 -1.0628 1.40202 -4.56068
169 1 4.00648 -3.68135 1.32094 -4.52699
170 1 3.68743 -1.09574 -1.77457 -4.4598
171 1 4.99484 -4.72625 57.5456 -4.51191
172 1 5.11441 -2.10837 -0.156465 -4.48801
173 1 7.5978 -4.74343 0.0346857 -4.54126
174 1 7.64567 -2.15306 -3.16253 -4.47904
175 1 6.36446 -3.62991 -1.6264 -4.50656
176 1 6.37049 -0.992839 1.60415 -4.52988
177 1 8.96679 -3.43348 1.46508 -4.52481
178 1 8.80203 -0.907571 -1.43488 -4.47235
179 1 10.0246 -4.78521 -3.06228 -4.53202
180 1 10.1482 -2.08235 0.0557198 -4.54066
181 1 12.5161 -4.80895 0.200955 -4.46851
182 1 12.5513 -2.49274 -3.13965 -4.47432
183 1 11.2555 -3.57832 -1.46597 -4.50691
184 1 11.6728 -1.18584 1.6466 -4.52357
185 1 14.0647 -3.75022 1.66585 -4.42064
186 1 13.6749 -1.48014 -1.38241 -4.47749
187 1 14.9971 -5.00208 -2.89281 -4.51055
188 1 15.2667 -2.5641 0.152292 -4.38092
189 1 18.2555 -4.13275 -1.10527 -4.73422
190 1 17.7683 -2.15107 57.2522 -4.67177
191 1 16.3459 -3.20813 -1.95413 -4.56064
192 1 16.6322 -1.33936 1.53276 -4.38653
193 1 19.5027 -2.34325 -0.237376 -4.04067
194 1 19.1003 -0.867416 -2.15149 -4.08574
195 1 -19.8375 -1.34906 -2.26117 -4.3843
196 1 -18.7302 -0.00785668 0.936452 -4.3857
197 1 -18.0717 2.02699 -3.1379 -4.29438
198 1 -18.5388 0.395956 -1.44834 -4.44982
199 1 -18.5625 4.91967 2.09425 -4.29564
200 1 -16.8724 1.33163 1.4691 -4.57894
201 1 -16.9391 3.17421 -1.43535 -4.45753
202 1 -15.2318 0.0475219 57.2132 -4.51022
203 1 -15.3178 2.17109 -0.139684 -4.4174
204 1 -12.8305 0.116475 -0.0292664 -4.47896
205 1 -13.0025 2.51401 57.5838 -4.526
206 1 -14.0352 1.06244 -1.7869 -4.39512
207 1 -14.3524 3.70764 1.41438 -4.47775
208 1 -11.5201 1.41875 1.28671 -4.51006
209 1 -11.7298 3.79688 -1.65649 -4.54598
210 1 -10.4676 0.162037 57.3394 -4.52569
211 1 -10.318 2.57686 -0.330551 -4.54119
212 1 -7.88871 -0.103313 -0.378908 -4.54651
213 1 -7.68046 2.56919 -3.22026 -4.55589
214 1 -9.15824 1.2353 -1.89576 -4.57974
215 1 -9.0625 3.82872 1.26463 -4.52053
216 1 -6.57055 1.16707 1.31507 -4.5151
217 1 -6.54159 3.7836 -1.54707 -4.55327
218 1 -5.12201 0.109974 -2.94693 -4.55833
219 1 -5.20208 2.50978 -0.0693199 -4.57397
220 1 -2.76659 0.0652846 -0.158785 -4.55003
221 1 -2.60276 2.8671 -3.24464 -4.56729
222 1 -3.78981 1.52832 -1.67613 -4.53649
223 1 -3.7318 3.94094 1.32069 -4.54493
224 1 -1.36081 1.17644 1.34927 -4.5445
225 1 -1.23725 4.03881 -1.76781 -4.50138
226 1 -0.182688 0.177098 -3.08015 -4.49371
227 1 -0.145435 2.6595 -0.111916 -4.56221
228 1 2.6218 0.302719 -0.0115844 -4.49984
229 1 2.48529 2.87078 -2.95283 -4.41576
230 1 1.16044 1.38276 -1.54294 -4.58479
231 1 1.31759 3.87121 1.45697 -4.50186
232 1 3.79264 1.62504 1.47242 -4.51769
233 1 3.7219 4.24505 -1.5197 -4.55256
234 1 4.90348 0.424587 -3.09088 -4.55911
235 1 5.06124 2.99502 0.0428557 -4.56592
236 1 7.58258 0.467889 0.0925657 -4.51222
237 1 7.6913 2.8534 -3.25781 -4.57184
238 1 6.31845 1.658 -1.62781 -4.46045
239 1 6.49742 4.21099 1.48517 -4.54707
240 1 9.10068 1.27898 1.66808 -4.50192
241 1 8.91357 4.0322 -1.65719 -4.43766
242 1 10.1638 0.0396503 -3.1637 -4.50205
243 1 10.0335 2.6893 -0.00168031 -4.51175
244 1 12.6676 0.232081 0.0134436 -4.5445
245 1 12.6062 2.88293 -2.94934 -4.3387
246 1 11.2857 1.41959 -1.57148 -4.54363
247 1 11.4162 3.98018 1.42642 -4.52301
248 1 13.953 1.50813 1.56183 -4.56653
249 1 14.2752 4.35174 -1.65276 -4.85077
250 1 14.9253 -0.189361 -2.87907 -4.51909
251 1 15.2215 2.65124 -0.10282 -4.26983
252 1 18.033 -0.271716 -0.0596714 -4.80807
253 1 17.01 2.18636 -3.05153 -4.34432
254 1 16.2449 0.907716 -1.30561 -4.34326
255 1 16.7933 3.99804 1.23854 -4.87309
256 1 19.5422 0.834681 1.57446 -4.18272
257 1 18.7985 3.76072 -2.8327 -4.18958
258 1 19.1296 1.28115 57.3615 -4.06947
259 1 -18.4262 4.71902 -0.407594 -3.45266
260 1 -17.5891 7.82171 56.9977 -4.53031
261 1 -18.0816 5.91244 -2.51731 -4.35729
262 1 -16.8269 6.40835 1.64245 -4.66742
263 1 -16.3137 8.7223 -2.0254 -3.49226
264 1 -15.8478 4.8819 -2.91131 -5.30793
265 1 -15.7109 7.76914 0.0141694 -4.49046
266 1 -12.9488 4.94632 0.09008 -4.56545
267 1 -13.1331 7.48833 -2.92892 -4.50015
268 1 -14.3747 6.22391 -1.3535 -4.31007
269 1 -14.1793 8.95991 1.3291 -4.52159
270 1 -11.3652 6.2704 1.29098 -4.58151
271 1 -11.5855 8.86181 -1.74147 -4.54174
272 1 -10.4134 5.00359 -3.23491 -4.56298
273 1 -10.2185 7.79792 -0.111141 -4.54829
274 1 -7.76132 5.22559 -0.0675406 -4.61554
275 1 -7.78709 7.6464 -3.1679 -4.57975
276 1 -9.13949 6.31558 -1.65545 -4.58405
277 1 -8.64707 8.77794 1.38935 -4.54258
278 1 -6.23474 6.57234 1.19722 -4.50642
279 1 -6.45898 9.13612 -1.79826 -4.56556
280 1 -5.42472 5.13551 57.6696 -4.55757
281 1 -5.10692 7.8368 -0.458582 -4.54375
282 1 -2.60524 5.25239 -0.184093 -4.52833
283 1 -2.40333 7.69115 57.3969 -4.55358
284 1 -3.87533 6.45658 -1.81996 -4.51571
285 1 -3.90575 8.99549 1.1735 -4.53464
286 1 -1.23241 6.53317 1.32165 -4.53826
287 1 -1.32479 9.08809 -1.87593 -4.54333
288 1 0.0560297 5.22952 -3.45874 -4.52989
289 1 -0.108882 7.76219 -0.352025 -4.56204
290 1 2.26951 5.41667 -0.0756443 -4.51349
291 1 2.55508 7.79767 57.3106 -4.50102
292 1 1.18548 6.5114 -1.8852 -4.45021
293 1 1.08426 9.33329 1.03913 -4.44015
294 1 3.76789 6.79447 1.39461 -4.54038
295 1 3.55154 9.00907 -1.77672 -4.49572
296 1 4.9364 5.41469 -3.11427 -4.42942
297 1 5.08597 8.15667 -0.177986 -4.53128
298 1 7.67874 5.31358 -0.139121 -4.51396
299 1 7.27402 7.66505 57.4256 -4.48906
300 1 6.31774 6.64246 -1.54073 -4.509
301 1 6.60277 9.44804 1.31723 -4.44107
302 1 9.06797 6.72243 1.3275 -4.44005
303 1 8.51496 9.12632 -1.96648 -4.60214
304 1 9.96926 5.1743 57.2853 -4.49671
305 1 9.98696 7.97667 -0.525255 -4.3601
306 1 12.5994 5.24015 -0.273448 -4.36767
307 1 12.2787 7.40339 57.2811 -4.47724
308 1 11.1128 6.38898 -1.83399 -4.51633
309 1 12.0728 9.43603 2.00321 -4.46269
310 1 14.0729 6.56131 1.12854 -4.51858
311 1 13.6563 8.35242 -1.8976 -4.30226
312 1 14.6994 4.96841 56.7722 -4.39702
313 1 15.9149 7.81502 0.251796 -4.36348
314 1 18.0546 4.66948 -0.662483 -4.05587
315 1 16.5982 6.37952 57.1924 -4.6633
316 1 16.1482 5.97427 -1.29709 -4.34273
317 1 16.6266 8.50272 2.52088 -4.33208
318 1 18.8475 4.95299 1.64908 -4.07341
319 1 -15.8196 12.8193 2.49341 -3.98326
320 1 -15.2643 10.6961 -3.06237 -4.68511
321 1 -15.0415 13.3774 -0.106977 -3.9765
322 1 -12.8015 10.1072 -0.226841 -4.5734
323 1 -12.9009 13.1665 -3.13395 -4.8911
324 1 -13.9764 11.7681 -1.46217 -4.43215
325 1 -13.8175 14.0046 1.93861 -4.83867
326 1 -11.487 11.4295 1.15231 -4.42844
327 1 -11.8506 14.4676 -1.6148 -4.25355
328 1 -10.3959 10.2753 57.4991 -4.59912
329 1 -10.5876 12.7847 -0.508424 -4.46811
330 1 -7.79619 10.2768 -0.268917 -4.55561
331 1 -7.55995 12.8099 57.4787 -4.56788
332 1 -9.00616 11.5353 -1.93102 -4.53915
333 1 -9.402 14.0346 1.19761 -4.51962
334 1 -6.30198 11.682 1.02036 -4.5787
335 1 -6.64329 14.3662 -1.81534 -4.54356
336 1 -5.05818 10.162 57.4969 -4.54366
337 1 -5.22827 13.0348 -0.528983 -4.54946
338 1 -2.77809 10.3192 -0.40343 -4.56961
339 1 -2.61226 12.8629 57.2573 -4.54965
340 1 -3.95886 11.6852 -1.91671 -4.56654
341 1 -3.95705 14.3273 0.974999 -4.51316
342 1 -1.51039 11.6552 1.01124 -4.54119
343 1 -1.27688 14.0232 -1.98148 -4.55806
344 1 -0.0421731 10.2932 57.4553 -4.52706
345 1 0.127478 12.8686 -0.315905 -4.50034
346 1 2.51921 10.5235 -0.328489 -4.55113
347 1 2.72442 12.9425 57.3715 -4.5359
348 1 1.32815 11.7306 -2.00854 -4.55487
349 1 0.998426 14.315 1.26298 -4.54571
350 1 3.87617 11.8936 1.23965 -4.54365
351 1 3.69313 14.2599 -1.71905 -4.43772
352 1 4.87294 10.2555 -3.23933 -4.44721
353 1 5.24893 13.3733 -0.0980322 -4.41864
354 1 7.76711 10.6841 -0.421079 -4.34197
355 1 7.02525 12.9308 57.2991 -4.39935
356 1 6.02606 11.8015 -1.64807 -4.48764
357 1 6.34206 14.6479 1.71654 -4.59013
358 1 9.47795 12.3606 2.01534 -4.4557
359 1 8.40784 14.1011 -1.93419 -4.82336
360 1 9.70804 10.2186 57.1108 -4.41561
361 1 9.52213 12.4959 -0.44574 -4.72584
362 1 11.9505 9.47592 -0.547723 -4.87133
363 1 12.0586 12.2595 56.9883 -4.29338
364 1 11.0557 11.2339 -1.93812 -4.67812
365 1 11.1279 13.9401 2.15957 -4.57713
366 1 13.8341 10.8904 2.24639 -4.47783
367 1 12.7852 12.9644 -1.64826 -4.30258
368 1 14.5537 9.85376 57.3446 -4.13918
369 1 13.6909 11.1177 -0.223005 -4.34988
370 1 15.3471 9.70383 -1.17901 -4.34367
371 1 -13.59 15.154 -0.16511 -4.07338
372 1 -12.772 16.1786 2.20866 -3.99847
373 1 -9.66679 15.592 57.1361 -4.38907
374 1 -8.45553 15.2749 -0.564566 -4.53595
375 1 -8.418 17.6148 57.0606 -4.39559
376 1 -9.69402 16.8966 -1.73453 -4.40654
377 1 -6.86149 16.2488 0.9036 -4.77244
378 1 -7.77814 18.3233 -1.66335 -3.61226
379 1 -5.34341 15.5481 57.4076 -4.50152
380 1 -5.78148 17.8889 -0.366193 -4.72192
381 1 -2.68118 15.4183 -0.636402 -4.56319
382 1 -3.11672 18.2068 57.3145 -4.59262
383 1 -4.21794 16.7926 -1.8033 -4.49131
384 1 -5.34003 19.1852 1.51768 -4.10042
385 1 -1.8262 16.7874 0.9937 -4.52688
386 1 -1.56147 19.3235 -2.11498 -3.63329
387 1 -0.147173 15.3545 57.3241 -4.52045
388 1 -0.432198 18.0821 -0.407945 -4.66987
389 1 2.24652 15.5164 -0.288441 -4.49439
390 1 2.26984 18.2938 -2.77728 -4.45719
391 1 0.956967 16.7127 -1.83227 -4.59946
392 1 0.726257 19.0241 1.34053 -4.19742
393 1 3.27043 16.6696 1.56612 -4.44204
394 1 2.28958 19.6564 -0.86888 -4.01426
395 1 4.57865 15.8212 57.4117 -4.44802
396 1 4.19824 18.1679 -0.213901 -4.35844
397 1 7.28996 16.0383 -1.22375 -4.40975
398 1 8.75284 17.5279 -2.27256 -4.45074
399 1 5.54537 17.4379 -2.01514 -4.43998
400 1 5.3602 18.988 1.7027 -3.75779
401 1 7.98373 16.1073 1.14483 -4.32148
402 1 9.53492 14.816 56.8457 -4.40537
403 1 11.2538 14.14 -0.228767 -4.26348
404 1 10.2908 15.7037 -2.0216 -4.23455
405 1 0.581528 19.9911 -2.72725 -4.25478
406 1 -12.4012 -16.0063 2.0237 -4.21875
407 1 -8.00696 -17.9133 2.81544 -3.71069
408 1 -9.07889 -16.4461 7.61763 -3.63299
409 1 -6.12292 -18.7069 8.27432 -4.09326
410 1 -6.29807 -16.965 4.19855 -4.53885
411 1 -5.15047 -18.0342 6.12049 -4.53118
412 1 -2.67126 -17.9547 2.87233 -4.45688
413 1 -3.17654 -18.9482 5.13693 -3.53237
414 1 -3.76065 -16.3941 7.16775 -4.51124
415 1 -1.36253 -19.151 6.57923 -4.12915
416 1 -1.19398 -16.4917 3.98528 -4.64467
417 1 0.997759 -20.2635 0.827358 -4.09709
418 1 0.223177 -17.8829 5.22887 -4.41464
419 1 2.66734 -17.7168 2.09367 -4.55632
420 1 0.966757 -19.0563 3.08898 -4.25288
421 1 1.29496 -16.3683 6.70555 -4.36704
422 1 4.47881 -18.9324 7.69708 -4.43444
423 1 3.92445 -16.6945 3.94581 -4.46004
424 1 5.23528 -17.879 5.62389 -4.47795
425 1 7.85287 -17.9637 2.04265 -4.4665
426 1 7.13621 -18.1767 4.32883 -3.44181
427 1 5.95747 -16.1578 7.01045 -4.48745
428 1 8.44854 -16.3377 3.68133 -4.26849
429 1 12.8259 -14.5258 8.46115 -4.48805
430 1 -17.3919 -9.5398 4.9152 -3.99308
431 1 -15.8426 -12.0337 4.73215 -3.88227
432 1 -13.0404 -14.6433 3.92655 -4.1731
433 1 -12.8254 -12.7138 2.40024 -4.87125
434 1 -14.914 -13.5891 3.1681 -4.25963
435 1 -14.5031 -11.3245 6.54848 -4.53124
436 1 -12.1283 -14.1068 6.09909 -4.33942
437 1 -11.5347 -11.368 3.85608 -4.37514
438 1 -10.0766 -15.5666 2.22822 -4.1947
439 1 -10.429 -12.7917 5.3601 -4.56914
440 1 -7.89427 -15.9034 5.66515 -4.49597
441 1 -7.86594 -12.947 2.85947 -4.57497
442 1 -9.14885 -14.5081 4.14218 -4.46777
443 1 -9.41898 -11.6041 7.21923 -4.51002
444 1 -6.71011 -14.1169 7.09491 -4.49851
445 1 -6.55932 -11.5658 4.22788 -4.56627
446 1 -5.09589 -15.39 2.84406 -4.55097
447 1 -5.26054 -12.7657 5.74141 -4.59737
448 1 -2.26717 -15.3283 5.77393 -4.48299
449 1 -2.49339 -12.7332 2.73751 -4.47916
450 1 -3.83062 -14.1809 4.41495 -4.498
451 1 -4.06925 -11.4813 7.39521 -4.51469
452 1 -1.54872 -13.8058 7.29455 -4.48075
453 1 -1.25062 -11.3552 4.22417 -4.55604
454 1 0.122251 -15.1492 2.42297 -4.56449
455 1 -0.082222 -12.6188 5.79447 -4.5005
456 1 2.73153 -15.1546 5.33796 -4.57081
457 1 2.52828 -12.617 2.72637 -4.60361
458 1 1.12168 -13.8247 4.15034 -4.56149
459 1 1.25985 -11.4224 7.48731 -4.50235
460 1 3.51309 -13.7917 7.0569 -4.46035
461 1 3.87497 -11.3978 4.32306 -4.53713
462 1 5.24505 -15.0371 2.81729 -4.51535
463 1 5.11541 -12.5202 5.87633 -4.57968
464 1 7.87147 -15.3575 5.73886 -4.43715
465 1 7.70605 -12.5378 3.08086 -4.55384
466 1 6.42306 -13.9171 4.56749 -4.60059
467 1 6.51084 -11.3527 7.41599 -4.55928
468 1 8.92893 -13.8192 7.25116 -4.38277
469 1 9.10418 -11.2669 4.58903 -4.58166
470 1 10.4849 -15.2861 3.12554 -4.45273
471 1 10.4066 -12.8145 5.81926 -4.50828
472 1 13.1937 -14.1651 6.08013 -3.70908
473 1 13.3643 -12.5338 2.47927 -4.24773
474 1 11.8253 -13.4871 4.13077 -4.40477
475 1 11.4525 -11.3038 7.24761 -4.47313
476 1 13.3201 -12.2495 8.5059 -4.64319
477 1 14.2148 -11.0853 3.98245 -4.42556
478 1 14.8978 -12.6291 5.84342 -3.62961
479 1 15.6897 -12.5358 8.09271 -4.52718
480 1 -17.8278 -7.82415 3.24451 -4.67518
481 1 -18.8531 -4.66004 8.81785 -4.36842
482 1 -16.7536 -8.51563 6.97186 -4.47942
483 1 -16.3451 -6.41237 4.31908 -4.68948
484 1 -15.6494 -10.1049 3.38636 -4.73862
485 1 -14.9142 -7.57718 5.73636 -4.6639
486 1 -12.5344 -10.2916 5.83599 -4.53388
487 1 -12.6393 -7.90921 2.53729 -4.43118
488 1 -13.7745 -9.03963 4.27207 -4.5771
489 1 -14.0016 -6.22923 7.42463 -4.55804
490 1 -11.5326 -8.87829 7.39733 -4.47745
491 1 -11.5769 -6.38332 4.04011 -4.46261
492 1 -10.1646 -10.1002 2.48379 -4.51466
493 1 -10.3804 -7.53577 5.77602 -4.49971
494 1 -7.83455 -10.3959 5.96714 -4.57178
495 1 -7.93954 -7.78421 2.95013 -4.48948
496 1 -9.18935 -9.19537 4.40683 -4.51165
497 1 -9.1254 -6.36264 7.42424 -4.50919
498 1 -6.54672 -8.99931 7.43376 -4.51571
499 1 -6.60852 -6.40802 4.45538 -4.54854
500 1 -5.12682 -10.2601 2.86937 -4.55674
501 1 -5.36834 -7.71239 5.95591 -4.54602
502 1 -2.57545 -10.2457 5.90434 -4.54365
503 1 -2.68903 -7.67402 2.89553 -4.50353
504 1 -3.93138 -8.97115 4.48622 -4.58497
505 1 -3.98638 -6.32583 7.24347 -4.54171
506 1 -1.33488 -8.73538 7.30569 -4.60326
507 1 -1.23449 -6.15585 4.2456 -4.54845
508 1 0.139636 -10.0542 2.77322 -4.53588
509 1 0.036466 -7.41306 5.91534 -4.54514
510 1 2.52683 -10.174 5.78689 -4.57463
511 1 2.49121 -7.48269 2.96367 -4.53474
512 1 1.21535 -8.78082 4.44943 -4.55107
513 1 1.26799 -6.22325 7.49428 -4.60245
514 1 3.7944 -8.76955 7.23138 -4.55677
515 1 3.75888 -6.34048 4.61304 -4.57179
516 1 5.1508 -9.96555 2.88994 -4.58432
517 1 5.34588 -7.43565 5.96856 -4.57681
518 1 7.76016 -10.0226 5.96448 -4.56307
519 1 7.84535 -7.33757 2.77072 -4.54878
520 1 6.60764 -8.70322 4.31234 -4.5533
521 1 6.5637 -6.07831 7.4725 -4.49598
522 1 8.94446 -8.60645 7.33673 -4.59839
523 1 9.12694 -6.16428 4.50765 -4.55394
524 1 10.1309 -9.9588 2.97834 -4.51416
525 1 10.4686 -7.44656 5.91284 -4.55606
526 1 12.9249 -10.0612 5.71319 -4.48316
527 1 12.8133 -7.19181 3.22659 -4.42919
528 1 11.6048 -8.77757 4.37816 -4.61597
529 1 11.7091 -6.35226 7.67871 -4.59976
530 1 14.3194 -8.9584 7.26226 -4.48056
531 1 14.0554 -6.32443 5.03251 -4.53072
532 1 15.5891 -10.0002 2.27852 -4.43073
533 1 15.7994 -7.67799 5.93353 -4.68582
534 1 16.8393 -6.02056 2.80815 -4.70815
535 1 16.5448 -8.26496 3.7126 -3.51451
536 1 16.8401 -6.30959 7.53568 -3.97209
537 1 18.3158 -4.47741 3.72466 -4.43504
538 1 -17.7776 -5.0357 5.42678 -4.51862
539 1 -16.8943 -3.26679 2.46804 -4.35665
540 1 -18.8171 -4.19357 3.38603 -4.41957
541 1 -19.1353 -2.20976 4.90129 -3.92887
542 1 -16.4351 -3.63821 6.70386 -4.563
543 1 -16.9208 -1.35225 4.17691 -5.30981
544 1 -14.9125 -5.68261 2.60104 -4.37766
545 1 -15.0216 -2.17932 5.5314 -4.23277
546 1 -12.6983 -5.0856 5.7155 -4.48231
547 1 -12.8417 -2.48484 2.57831 -4.53825
548 1 -14.1095 -3.89495 4.09023 -4.46683
549 1 -13.8408 -1.14197 7.47982 -4.46005
550 1 -11.507 -3.85699 7.32745 -4.47076
551 1 -11.4604 -1.25799 4.20694 -4.4918
552 1 -10.2479 -4.99979 2.44795 -4.50157
553 1 -10.2805 -2.54153 5.73477 -4.52995
554 1 -7.89845 -5.04425 5.95019 -4.54106
555 1 -7.76178 -2.52966 2.80414 -4.47501
556 1 -8.96244 -3.8421 4.23712 -4.47899
557 1 -9.14358 -1.25718 7.30101 -4.5207
558 1 -6.53394 -3.72631 7.37691 -4.58497
559 1 -6.35524 -1.36682 4.37315 -4.5808
560 1 -5.45553 -5.19587 2.81923 -4.55221
561 1 -5.03177 -2.67306 5.83017 -4.54055
562 1 -2.66703 -4.96584 5.69996 -4.56533
563 1 -2.47719 -2.44554 2.70368 -4.52717
564 1 -3.97309 -3.89231 4.03141 -4.53556
565 1 -3.67259 -1.26485 7.13563 -4.57228
566 1 -1.19862 -3.53306 7.05746 -4.49726
567 1 -1.27045 -1.15339 4.33154 -4.56329
568 1 -0.0515741 -4.76887 2.81958 -4.54243
569 1 0.248944 -2.29747 5.75801 -4.54399
570 1 2.62465 -4.81009 6.02149 -4.49896
571 1 2.82264 -2.36192 2.8914 -4.56928
572 1 1.45925 -3.76682 4.34607 -4.51294
573 1 1.27865 -1.2773 7.56121 -4.51164
574 1 4.06851 -3.87634 7.50821 -4.4992
575 1 4.02052 -1.09458 4.61526 -4.57905
576 1 5.09841 -4.97044 3.03795 -4.5011
577 1 5.36355 -2.5204 5.96152 -4.52393
578 1 7.81098 -4.80259 6.00866 -4.52867
579 1 7.81836 -2.13268 3.02111 -4.5142
580 1 6.49256 -3.69103 4.32614 -4.52311
581 1 6.22878 -1.03724 7.62047 -4.54859
582 1 9.19951 -3.65102 7.67519 -4.5817
583 1 8.8966 -1.15197 4.81245 -4.46156
584 1 10.1993 -4.75127 3.00205 -4.52939
585 1 10.4658 -2.35856 6.14113 -4.56714
586 1 12.9753 -4.86709 6.40664 -4.56431
587 1 12.8667 -2.46444 3.27032 -4.49524
588 1 11.4713 -3.88687 4.82537 -4.43687
589 1 11.6844 -1.20555 7.80877 -4.56199
590 1 14.341 -3.44116 7.78967 -4.54669
591 1 14.1328 -1.10307 4.68737 -4.51318
592 1 15.1874 -4.63767 3.60079 -4.61115
593 1 15.557 -1.98329 6.36492 -4.47573
594 1 17.7751 -4.55179 6.04608 -3.59565
595 1 18.4961 -2.58535 2.15463 -4.22516
596 1 16.6597 -3.14143 4.60374 -4.56805
597 1 16.8652 -0.283804 7.50936 -4.31259
598 1 18.9931 -1.08509 8.21192 -4.44115
599 1 19.4667 -0.651776 3.46148 -4.3125
600 1 -19.1583 -0.406877 3.30567 -4.04079
601 1 -17.4088 0.323962 5.97338 -4.45792
602 1 -17.8656 2.84241 3.02995 -4.4407
603 1 -18.87 1.62138 4.71641 -4.45957
604 1 -18.4789 3.39921 6.32209 -4.17215
605 1 -15.9859 1.39174 7.414 -4.59455
606 1 -16.9037 4.34417 4.74072 -4.99082
607 1 -15.4711 0.180716 2.91686 -4.37706
608 1 -15.286 2.95307 5.80194 -4.33248
609 1 -12.4831 0.0985343 5.8871 -4.45628
610 1 -12.6092 2.76887 2.8298 -4.59142
611 1 -13.9129 1.44365 4.3358 -4.49069
612 1 -14.0537 4.05061 7.42634 -4.55637
613 1 -11.6241 1.45921 7.59959 -4.52779
614 1 -11.3935 3.96548 4.52418 -4.54897
615 1 -10.1961 0.129845 2.86476 -4.51101
616 1 -10.2296 2.60976 6.06617 -4.58523
617 1 -7.75511 -0.030082 5.83197 -4.6174
618 1 -7.56922 2.64336 2.88166 -4.53162
619 1 -8.90971 1.43403 4.43716 -4.55159
620 1 -8.90063 4.01845 7.36869 -4.57224
621 1 -6.36293 1.20061 7.27105 -4.58471
622 1 -6.16566 3.87093 4.34287 -4.52965
623 1 -5.19447 -0.00108981 2.8747 -4.54483
624 1 -4.97499 2.60104 5.83946 -4.57775
625 1 -2.33244 0.213929 5.88389 -4.55094
626 1 -2.40322 2.75181 2.91593 -4.55508
627 1 -3.66199 1.33932 4.29875 -4.58338
628 1 -3.67302 3.91668 7.24461 -4.55549
629 1 -1.06613 1.47814 7.47152 -4.56551
630 1 -1.19521 4.05345 4.53053 -4.58762
631 1 0.123801 0.202046 2.86372 -4.56741
632 1 0.159156 2.76732 5.9618 -4.61503
633 1 2.56756 0.0886627 6.00979 -4.54426
634 1 2.61461 2.81572 3.07998 -4.52838
635 1 1.39277 1.40056 4.45787 -4.5488
636 1 1.57637 4.08267 7.31977 -4.54843
637 1 3.93088 1.31223 7.64736 -4.55096
638 1 4.04409 3.97515 4.46652 -4.54326
639 1 5.16804 0.435377 3.1015 -4.56737
640 1 5.18486 2.79395 6.21852 -4.48907
641 1 7.65332 0.189269 6.20608 -4.54505
642 1 7.86553 2.82515 2.99027 -4.5506
643 1 6.55495 1.65705 4.64374 -4.5672
644 1 6.54882 4.33628 7.70532 -4.54203
645 1 8.88414 1.52719 7.52645 -4.48776
646 1 9.13222 4.07733 4.49099 -4.54436
647 1 10.2653 -0.00850156 3.19613 -4.5439
648 1 10.3394 2.78291 6.05535 -4.58197
649 1 12.8138 0.182067 6.27322 -4.52783
650 1 12.6593 2.87096 3.03984 -4.53006
651 1 11.5998 1.47681 4.56552 -4.53517
652 1 11.5136 4.12981 7.60213 -4.56518
653 1 14.1511 1.43258 7.72499 -4.54209
654 1 14.0914 4.04719 4.49158 -4.47815
655 1 15.1819 -0.100799 2.85551 -4.50568
656 1 15.3067 2.58123 5.95825 -4.38141
657 1 18.0491 0.034295 5.27509 -4.52366
658 1 17.6514 2.04405 2.30844 -4.55126
659 1 16.3942 1.4157 4.22582 -4.5959
660 1 16.8089 3.5154 7.43386 -4.34409
661 1 19.6231 1.67138 6.05202 -4.42072
662 1 19.2399 3.35917 3.39076 -4.56566
663 1 20.6149 1.49909 3.85773 -4.16072
664 1 -19.0212 5.79229 6.83763 -4.32503
665 1 -17.5623 7.8107 3.38454 -3.59518
666 1 -18.6869 5.90732 4.41467 -4.21439
667 1 -16.9234 6.72238 7.17756 -4.64976
668 1 -16.5775 9.66507 4.59565 -4.55065
669 1 -15.4204 5.23229 3.04406 -4.41719
670 1 -15.459 8.02771 5.81862 -4.5801
671 1 -12.9723 5.26402 5.64735 -4.54702
672 1 -12.6386 7.75232 2.71556 -4.55163
673 1 -14.1398 6.7718 4.24218 -4.56649
674 1 -13.884 9.12357 7.21401 -4.63278
675 1 -11.6253 6.30782 7.18495 -4.47873
676 1 -10.9825 8.81557 4.20654 -4.50303
677 1 -10.1337 5.17773 2.89536 -4.5389
678 1 -10.0744 7.54302 6.044 -4.47401
679 1 -7.59418 5.13986 5.749 -4.59435
680 1 -7.28691 7.72332 2.96128 -4.47797
681 1 -8.77652 6.557 4.28679 -4.56242
682 1 -8.7079 8.89565 7.32414 -4.59954
683 1 -6.37181 6.45477 7.16938 -4.5215
684 1 -6.18506 9.21049 4.4724 -4.54609
685 1 -5.07513 5.20203 2.68234 -4.54971
686 1 -5.00772 7.73357 5.83063 -4.56358
687 1 -2.54592 5.41764 5.89376 -4.57513
688 1 -2.4004 8.04341 2.7264 -4.50983
689 1 -3.72452 6.57579 4.19467 -4.54433
690 1 -3.66583 9.16069 7.24494 -4.56908
691 1 -0.924605 6.63094 7.26885 -4.55407
692 1 -1.40781 9.40268 4.40604 -4.50569
693 1 0.0988912 5.36406 2.94202 -4.59516
694 1 0.0437825 8.13845 5.70695 -4.57977
695 1 2.68698 5.43206 5.69891 -4.54665
696 1 2.45808 8.17786 2.66163 -4.55777
697 1 1.43393 6.79244 4.29873 -4.56811
698 1 1.41053 9.26096 7.30605 -4.56842
699 1 3.8951 6.61775 7.35818 -4.54565
700 1 3.94885 9.17583 4.31649 -4.48402
701 1 5.05866 5.40176 2.92494 -4.5133
702 1 5.38599 8.05022 6.02245 -4.47053
703 1 7.92891 5.44895 6.09511 -4.52968
704 1 7.77639 8.00091 2.87245 -4.48561
705 1 6.50922 6.6182 4.49113 -4.54426
706 1 6.92058 9.26631 7.60379 -4.40063
707 1 9.15597 6.89612 7.53787 -4.42306
708 1 8.99113 9.3406 4.4907 -4.6481
709 1 10.2398 5.44807 2.85849 -4.47775
710 1 10.4304 8.20063 5.95025 -4.35737
711 1 12.872 5.44478 6.06201 -4.51079
712 1 13.0144 7.57427 3.04155 -4.44683
713 1 11.4502 6.59578 4.62869 -4.53864
714 1 12.1531 9.50646 8.60789 -4.49903
715 1 14.091 6.6434 7.68054 -4.35621
716 1 13.9046 8.57877 5.03578 -4.26403
717 1 15.1318 5.16656 2.70652 -4.39239
718 1 15.5667 8.22078 6.80749 -4.68185
719 1 18.474 3.85816 5.59067 -4.25052
720 1 18.4265 6.98965 2.99871 -4.26381
721 1 16.2711 6.69669 3.98767 -4.46638
722 1 17.0468 9.51288 8.18485 -4.09154
723 1 18.1878 6.31996 5.31971 -4.18706
724 1 -15.783 11.4312 6.23019 -3.52807
725 1 -15.3426 10.6224 2.67144 -4.57299
726 1 -15.0393 13.0399 4.69437 -4.63991
727 1 -12.3657 10.0187 5.69273 -4.54989
728 1 -12.158 12.6992 2.91003 -4.15977
729 1 -13.5544 11.2726 4.07788 -4.70903
730 1 -13.2759 14.1794 5.74964 -4.06729
731 1 -11.1562 11.5468 7.0543 -4.65872
732 1 -11.2674 14.3466 4.45335 -5.43176
733 1 -10.0126 10.2326 2.66001 -4.55682
734 1 -9.78888 12.8955 5.67979 -4.40605
735 1 -7.51057 10.4804 5.95079 -4.50913
736 1 -7.68243 12.916 2.45721 -4.56951
737 1 -8.63304 11.5168 4.10609 -4.52835
738 1 -8.31209 14.2089 7.0133 -4.53799
739 1 -6.16742 11.8662 7.40402 -4.50212
740 1 -6.22674 14.2597 3.79965 -4.61852
741 1 -5.19496 10.4519 2.65436 -4.48335