ITEM: TIMESTEP
160000
ITEM: NUMBER OF ATOMS
4050
ITEM: BOX BOUNDS ss ss pp
-2.0732371453268449e+01 2.0974237492572648e+01
-2.0689922804316993e+01 2.0723583800535113e+01
-2.1724000000000006e+00 5.6482399999999998e+01
ITEM: ATOMS id type x y z c_peratom
1 1 -11.8694 -15.7802 -0.241301 -4.05288
2 1 -7.73478 -17.8272 -1.51218 -4.29687
3 1 -9.14861 -17.123 1.65793 -4.57392
4 1 -7.59212 -18.9378 1.21612 -3.92716
5 1 -6.31752 -16.3082 -0.543768 -4.73286
6 1 -5.4303 -17.9743 0.708344 -4.68659
7 1 -2.77427 -18.2691 -2.01176 -4.67935
8 1 -4.97682 -19.0499 -1.41598 -3.80632
9 1 -3.87423 -16.9006 2.19779 -4.42401
10 1 -0.803264 -19.5048 2.41905 -4.46696
11 1 -1.73078 -16.5707 -0.80844 -4.52724
12 1 0.287229 -19.9043 -0.564784 -4.64179
13 1 -0.548562 -17.9902 0.609046 -4.58428
14 1 3.25216 -17.8388 56.2167 -4.58686
15 1 2.56347 -19.3395 -0.799464 -3.89924
16 1 1.28093 -16.6749 1.65984 -4.56373
17 1 3.41297 -19.3974 1.41366 -4.33994
18 1 4.11842 -16.5656 -0.812656 -4.66817
19 1 5.42923 -18.1842 0.283894 -4.39452
20 1 7.07404 -18.312 -1.50376 -4.11621
21 1 9.93252 -17.4634 1.40411 -3.79741
22 1 6.27526 -16.7704 1.98977 -4.58989
23 1 8.99372 -16.9689 -0.727435 -4.44669
24 1 11.8674 -16.3859 1.93147 -3.71633
25 1 -14.7226 -12.9094 0.134136 -4.15032
26 1 -14.9601 -14.7199 1.56087 -4.10523
27 1 -13.2536 -16.3043 1.62327 -4.27615
28 1 -12.8055 -13.0915 56.1814 -4.67055
29 1 -13.923 -14.6707 -1.1594 -4.1334
30 1 -14.1837 -11.7266 2.12454 -4.63547
31 1 -11.6039 -14.548 1.85371 -5.2173
32 1 -11.7286 -11.6161 -0.93353 -4.58582
33 1 -10.4428 -15.714 -2.20908 -4.42816
34 1 -10.3801 -13.0494 0.402929 -4.30375
35 1 -7.97555 -15.2928 0.743453 -4.62198
36 1 -7.56497 -12.697 -2.19278 -4.54897
37 1 -8.98011 -14.1719 -1.02157 -4.59915
38 1 -9.21765 -11.643 2.10145 -4.49065
39 1 -6.38529 -14.2736 2.25492 -4.55404
40 1 -6.48771 -11.3998 -0.67687 -4.5302
41 1 -4.99224 -15.5444 56.2743 -4.55256
42 1 -5.29413 -12.9041 0.598034 -4.52956
43 1 -3.01106 -15.3658 0.725559 -4.50408
44 1 -2.26418 -12.8404 56.4763 -4.58044
45 1 -3.92889 -14.0361 -0.928707 -4.56732
46 1 -4.06613 -11.7213 2.28646 -4.57924
47 1 -1.39435 -14.2097 1.97777 -4.59525
48 1 -1.09649 -11.459 -0.65117 -4.55624
49 1 0.0548171 -15.9501 56.4106 -4.51095
50 1 0.0741879 -13.0145 0.669491 -4.58411
51 1 2.71418 -15.2823 0.567102 -4.53891
52 1 2.6183 -12.8526 56.4288 -4.58718
53 1 1.19009 -14.3146 -0.93321 -4.58598
54 1 1.23496 -11.5169 2.16442 -4.54943
55 1 4.08759 -14.0372 2.0884 -4.56526
56 1 4.01232 -11.4296 -0.847865 -4.55787
57 1 5.29336 -15.2667 56.1964 -4.47107
58 1 5.32708 -12.6847 0.64307 -4.59499
59 1 7.71147 -15.552 0.614956 -4.60961
60 1 8.08111 -13.0519 56.4237 -4.51583
61 1 6.5178 -14.1529 -0.854466 -4.56189
62 1 6.8292 -11.6728 2.17776 -4.54802
63 1 9.21322 -14.4559 2.33167 -4.50917
64 1 9.01856 -11.6443 -0.615596 -4.50248
65 1 10.5953 -15.8102 -2.24923 -4.40741
66 1 10.278 -12.7177 1.04042 -4.47592
67 1 12.8795 -15.3684 -0.0443242 -4.52736
68 1 12.3418 -12.3871 -1.56095 -4.16394
69 1 11.0327 -14.1235 -0.65659 -4.64841
70 1 11.7972 -11.7123 2.67011 -4.53102
71 1 14.3536 -13.8399 1.09931 -4.09159
72 1 14.2517 -11.7316 -0.130748 -5.37951
73 1 16.1769 -13.0889 -0.282417 -4.099
74 1 16.4935 -11.0004 0.84379 -4.0883
75 1 -17.7961 -8.01906 56.3708 -3.69509
76 1 -18.9736 -5.66282 3.36141 -3.57828
77 1 -17.0342 -8.5427 2.6211 -3.66148
78 1 -17.0629 -6.54058 -0.615122 -4.5219
79 1 -15.4031 -10.8939 -1.87591 -3.88917
80 1 -15.7224 -7.70017 0.899313 -4.64183
81 1 -12.7934 -10.3271 0.668627 -4.48238
82 1 -13.2492 -7.80524 -2.13483 -4.54018
83 1 -14.5321 -9.16276 -0.501169 -4.60336
84 1 -14.1867 -6.36297 2.10204 -4.55023
85 1 -11.5203 -9.08182 2.30445 -4.56694
86 1 -11.8569 -6.44717 -0.793816 -4.59559
87 1 -10.1982 -10.2362 56.5492 -4.61563
88 1 -10.4829 -7.64561 0.697678 -4.64239
89 1 -7.80424 -10.2661 0.845095 -4.60022
90 1 -7.88351 -7.69143 -2.24485 -4.51129
91 1 -8.99578 -8.9118 -0.612809 -4.58851
92 1 -9.11386 -6.21804 2.07758 -4.53072
93 1 -6.52067 -8.80875 2.17805 -4.60767
94 1 -6.36872 -6.35621 -0.865001 -4.60495
95 1 -5.059 -10.2263 56.5271 -4.55691
96 1 -5.12464 -7.54642 0.772683 -4.58418
97 1 -2.60374 -10.4534 0.966827 -4.55383
98 1 -2.43538 -7.63124 56.5135 -4.54953
99 1 -3.74654 -8.92882 -0.529505 -4.5677
100 1 -3.85727 -6.22001 2.33398 -4.61133
101 1 -1.3484 -8.92277 2.2914 -4.59644
102 1 -1.20509 -6.28885 -0.63703 -4.59638
103 1 0.163648 -10.3728 56.3445 -4.50728
104 1 0.133544 -7.59257 0.863292 -4.54165
105 1 2.59208 -10.1656 0.657169 -4.57476
106 1 2.54496 -7.80161 -2.30746 -4.59443
107 1 1.24417 -8.99335 -0.772247 -4.53694
108 1 1.38603 -6.25135 2.42583 -4.51389
109 1 3.8964 -8.95962 2.23635 -4.55729
110 1 4.00791 -6.44707 -0.932984 -4.56907
111 1 5.45474 -10.4136 56.2275 -4.5615
112 1 5.21411 -7.73873 0.672283 -4.51096
113 1 7.95545 -10.0935 0.764808 -4.58323
114 1 7.74359 -7.70015 56.3933 -4.59732
115 1 6.5299 -9.08666 -0.826051 -4.55599
116 1 6.28826 -6.55199 2.32485 -4.56052
117 1 9.24721 -8.60564 2.14583 -4.52514
118 1 8.93335 -6.34622 -0.733778 -4.54849
119 1 10.1804 -10.1311 56.5763 -4.55418
120 1 10.5244 -7.35555 0.608914 -4.57574
121 1 12.8308 -10.274 1.16612 -4.38354
122 1 12.8932 -7.77758 -2.33437 -4.52262
123 1 11.7564 -8.96548 -0.663422 -4.47763
124 1 11.6604 -6.19299 2.34428 -4.56409
125 1 14.3399 -8.8989 2.28207 -4.64924
126 1 13.9676 -6.55915 -0.675536 -4.55858
127 1 15.058 -10.534 -2.10417 -4.39871
128 1 15.4932 -7.92543 0.540616 -4.58703
129 1 17.9995 -7.97731 56.22 -3.33298
130 1 16.7162 -9.41157 -0.886412 -4.57179
131 1 16.3847 -5.87132 1.38032 -4.20068
132 1 18.7338 -5.64715 56.4668 -4.06675
133 1 -18.2038 -5.30364 1.16589 -4.4134
134 1 -18.4226 -2.69974 -1.87584 -4.97011
135 1 -19.495 -3.41391 0.214917 -4.27089
136 1 -19.0607 -2.08454 2.04024 -3.87781
137 1 -16.691 -3.96569 2.18066 -4.5717
138 1 -16.9663 -1.13583 -0.661738 -4.49736
139 1 -15.7201 -5.37763 -2.11461 -4.564
140 1 -15.5324 -2.51775 0.631603 -4.45238
141 1 -12.8922 -4.99968 0.680769 -4.57413
142 1 -12.9396 -2.59602 -2.35612 -4.59403
143 1 -14.3329 -3.9546 -0.868051 -4.56272
144 1 -14.5052 -1.12285 2.34605 -4.50121
145 1 -11.5535 -3.98811 2.25548 -4.49129
146 1 -11.9252 -1.26503 -0.799076 -4.54031
147 1 -10.4885 -5.05679 56.5747 -4.55886
148 1 -10.545 -2.61365 0.576608 -4.60056
149 1 -7.70656 -5.09129 0.585731 -4.5568
150 1 -7.88998 -2.39474 56.387 -4.57956
151 1 -9.02289 -3.79095 -0.837373 -4.57935
152 1 -9.09851 -1.2945 1.97975 -4.59603
153 1 -6.40017 -3.9057 2.18414 -4.54879
154 1 -6.30644 -1.23331 -0.864874 -4.57099
155 1 -5.09793 -4.99859 56.4052 -4.588
156 1 -5.11186 -2.52539 0.738807 -4.59502
157 1 -2.52564 -5.03359 0.761586 -4.5468
158 1 -2.73908 -2.31691 56.5076 -4.50668
159 1 -3.83442 -3.7671 -0.712769 -4.5749
160 1 -3.71731 -1.10099 2.04791 -4.62437
161 1 -1.24957 -3.8121 2.36868 -4.55314
162 1 -1.26566 -1.2339 -0.767593 -4.56571
163 1 0.0612118 -4.94709 56.5392 -4.58731
164 1 -0.0527251 -2.43661 0.849583 -4.57327
165 1 2.66799 -5.19496 0.60913 -4.50706
166 1 2.53438 -2.52904 56.4173 -4.54967
167 1 1.37908 -3.69986 -0.531521 -4.56891
168 1 1.30326 -1.05951 2.2559 -4.60781
169 1 3.9309 -3.8439 2.1886 -4.56581
170 1 3.87492 -1.21546 -0.716324 -4.60387
171 1 5.29605 -5.00124 56.4519 -4.56834
172 1 5.24409 -2.41302 0.848398 -4.62336
173 1 7.64859 -5.18548 0.940168 -4.56863
174 1 7.76106 -2.19963 56.639 -4.60509
175 1 6.51139 -3.73759 -0.673413 -4.56957
176 1 6.66174 -1.07986 2.22112 -4.56278
177 1 9.07039 -3.78051 2.25996 -4.5751
178 1 9.30951 -1.05904 -0.626173 -4.6014
179 1 10.3017 -5.02284 -2.18181 -4.60112
180 1 10.4825 -2.53817 0.758871 -4.56138
181 1 13.0533 -5.03397 0.840151 -4.55647
182 1 12.9656 -2.28513 -2.05396 -4.55791
183 1 11.7571 -3.76714 -0.723208 -4.59987
184 1 11.6922 -1.17747 2.34919 -4.57341
185 1 14.3381 -3.65966 2.32016 -4.4215
186 1 14.1494 -1.13487 -0.450716 -4.55527
187 1 15.3145 -5.17917 56.6689 -4.45479
188 1 15.6271 -2.31728 0.956198 -4.54041
189 1 18.27 -4.90967 0.137892 -4.55888
190 1 18.075 -2.53474 -2.34512 -4.62377
191 1 16.6613 -3.56146 -0.763959 -4.64979
192 1 17.0277 -1.01268 2.30178 -4.63698
193 1 19.1896 -2.72205 0.881196 -3.59712
194 1 19.1182 -0.986288 -0.819199 -4.12771
195 1 -20.1955 -1.38814 -1.03259 -4.3253
196 1 -19.0487 0.27179 2.13823 -4.45689
197 1 -18.5735 2.39896 -1.66182 -4.24235
198 1 -18.7921 0.279556 -0.241218 -4.39304
199 1 -19.2314 5.00483 3.19167 -3.94182
200 1 -17.1247 1.41861 2.50391 -4.49366
201 1 -17.3006 3.71175 -0.074262 -4.31829
202 1 -15.7284 0.0883402 56.4817 -4.58732
203 1 -15.6796 2.5209 0.952796 -4.46367
204 1 -13.2206 -0.00175307 0.784034 -4.55158
205 1 -13.1706 2.73527 -2.07854 -4.58859
206 1 -14.4771 1.38475 -0.70898 -4.56359
207 1 -14.2306 3.71479 2.39976 -4.56816
208 1 -11.7506 1.18035 2.17131 -4.59397
209 1 -11.8552 4.0145 -0.516081 -4.57733
210 1 -10.56 0.0770909 -2.24847 -4.60377
211 1 -10.4842 2.57073 0.82204 -4.58117
212 1 -7.71888 0.0288174 0.597916 -4.57502
213 1 -7.86154 2.63037 56.3611 -4.55669
214 1 -9.2119 1.36062 -0.757649 -4.6038
215 1 -9.25313 3.91881 2.33461 -4.59106
216 1 -6.53169 1.35871 2.03115 -4.53347
217 1 -6.66344 4.04342 -0.809767 -4.5974
218 1 -5.14939 -0.0567976 -2.52683 -4.55057
219 1 -5.23977 2.94994 0.659135 -4.50915
220 1 -2.54348 0.277285 0.55557 -4.59827
221 1 -2.76398 2.90203 56.3586 -4.58499
222 1 -4.09973 1.42447 -0.980022 -4.53443
223 1 -3.93496 4.14012 2.1868 -4.5646
224 1 -1.27041 1.59749 2.03221 -4.58644
225 1 -1.35611 4.11762 -0.657189 -4.56039
226 1 -0.0579942 0.189992 56.369 -4.54965
227 1 0.187219 2.79469 0.636335 -4.58068
228 1 2.60067 0.300708 0.766917 -4.55605
229 1 2.71763 2.80995 -2.25466 -4.61424
230 1 1.39511 1.42172 -0.867003 -4.58554
231 1 1.47603 3.8526 2.29628 -4.54781
232 1 4.24261 1.48311 2.13522 -4.53274
233 1 4.05751 4.09612 -0.780515 -4.54615
234 1 5.09759 0.400068 56.6231 -4.55981
235 1 5.53182 2.9855 0.822823 -4.53446
236 1 7.93016 0.167578 0.809332 -4.56287
237 1 7.91444 2.92383 56.6811 -4.58012
238 1 6.55617 1.51302 -0.567171 -4.54854
239 1 6.587 4.47693 2.39371 -4.56484
240 1 9.11115 1.70082 2.0977 -4.59196
241 1 9.27015 4.26888 -0.618181 -4.57682
242 1 10.3802 0.411194 -2.1676 -4.57601
243 1 10.5884 3.0024 0.844042 -4.62737
244 1 12.9701 0.303247 1.01405 -4.61225
245 1 13.0021 2.94437 56.7699 -4.62342
246 1 11.7068 1.52004 -0.612043 -4.55513
247 1 11.9981 4.26998 2.1096 -4.48592
248 1 14.341 1.56708 2.44298 -4.51467
249 1 14.593 4.31118 -0.770963 -4.47952
250 1 15.3092 0.143098 -2.01396 -4.52229
251 1 15.5151 2.99367 0.870575 -4.29817
252 1 18.211 0.344273 0.908995 -4.45285
253 1 17.5566 2.352 -2.08402 -4.4002
254 1 16.5069 1.27923 -0.332937 -4.50894
255 1 17.0939 4.34484 1.83454 -4.82643
256 1 19.6681 1.01917 2.79333 -4.27052
257 1 19.3623 3.70887 -2.02355 -4.20004
258 1 19.5319 1.29467 56.1024 -3.86925
259 1 -18.6666 5.53353 0.88827 -4.10107
260 1 -18.0842 8.19349 55.8712 -4.5128
261 1 -18.5757 6.41682 -1.38712 -4.19361
262 1 -17.0627 6.64664 2.39846 -4.83232
263 1 -16.8371 9.03785 -0.945035 -3.54957
264 1 -16.2981 5.28522 -1.71896 -5.2332
265 1 -15.7626 8.02426 0.929452 -4.5028
266 1 -13.1843 5.28251 0.891106 -4.57456
267 1 -13.1727 7.96225 56.7727 -4.53714
268 1 -14.5815 6.60227 -0.419264 -4.31823
269 1 -14.3571 9.34296 2.37359 -4.54284
270 1 -11.9216 6.69206 2.29115 -4.58869
271 1 -11.6934 9.20563 -0.477704 -4.60626
272 1 -10.565 5.2235 -2.16384 -4.58775
273 1 -10.4143 7.81512 0.894153 -4.61666
274 1 -7.93398 5.27184 0.769988 -4.61307
275 1 -7.91796 8.07912 -2.04086 -4.61233
276 1 -9.23725 6.58454 -0.664149 -4.59609
277 1 -8.95004 9.19556 2.10182 -4.53292
278 1 -6.4699 6.66015 2.0409 -4.56487
279 1 -6.55293 9.38117 -0.628798 -4.50827
280 1 -5.38807 5.50595 -2.22926 -4.56644
281 1 -5.19047 8.14856 0.611548 -4.50301
282 1 -2.62314 5.47472 0.718266 -4.58896
283 1 -2.59807 8.04422 -2.24754 -4.56131
284 1 -3.85944 6.82135 -0.725459 -4.53923
285 1 -3.87938 9.33828 2.2322 -4.628
286 1 -1.29476 6.63288 2.28408 -4.61436
287 1 -1.39616 9.1578 -0.527556 -4.58649
288 1 -0.0641757 5.32054 -2.18853 -4.5802
289 1 0.131121 7.82861 0.780329 -4.56634
290 1 2.66371 5.2665 0.796054 -4.56615
291 1 2.57386 7.84004 -2.14031 -4.59037
292 1 1.33903 6.47433 -0.611397 -4.52972
293 1 1.25025 9.41593 2.27006 -4.55344
294 1 3.87097 6.90547 2.16329 -4.55314
295 1 3.96978 9.2695 -0.928637 -4.55998
296 1 5.38671 5.39288 -2.16899 -4.57964
297 1 5.34657 8.03732 0.6855 -4.56868
298 1 7.99194 5.57461 0.862615 -4.54501
299 1 7.9221 8.0975 -2.1409 -4.59589
300 1 6.74841 6.71395 -0.677972 -4.55946
301 1 6.5777 9.29018 2.24518 -4.5073
302 1 9.32153 6.83176 2.34435 -4.59054
303 1 9.19459 9.42697 -0.654644 -4.5157
304 1 10.6093 5.39597 56.4021 -4.56633
305 1 10.6673 8.12541 0.807713 -4.35744
306 1 13.2166 5.6253 0.603703 -4.57656
307 1 12.579 7.87347 55.831 -4.23665
308 1 11.8309 6.82298 -0.812193 -4.47373
309 1 12.1615 9.75537 2.04538 -4.88535
310 1 14.5054 7.02935 1.8912 -4.54748
311 1 14.294 8.75988 -1.55119 -4.41777
312 1 15.379 5.46027 55.8869 -4.31851
313 1 16.4103 8.16252 0.925521 -4.514
314 1 18.756 4.85745 0.126199 -4.13358
315 1 17.4038 6.54682 55.7252 -4.6786
316 1 17.4388 6.56198 -0.556601 -3.66519
317 1 17.2651 8.84807 3.02191 -4.25813
318 1 19.1891 5.45589 2.44892 -4.11581
319 1 -16.0188 13.0753 3.39141 -4.21375
320 1 -15.6311 10.8167 -1.99535 -4.67021
321 1 -15.545 13.6649 1.04136 -4.13478
322 1 -13.0608 10.5908 0.877293 -4.5595
323 1 -13.2596 12.9299 -1.91671 -4.665
324 1 -14.5477 11.9901 -0.209176 -4.52191
325 1 -13.7886 13.7449 2.60734 -4.78769
326 1 -11.5056 11.4071 2.40379 -4.48825
327 1 -12.2251 14.3907 -0.487494 -4.66074
328 1 -10.4342 10.5128 56.7185 -4.57643
329 1 -10.7543 12.9431 0.823376 -4.4849
330 1 -7.85917 10.7397 0.600132 -4.51679
331 1 -7.92826 13.4023 -2.46855 -4.51371
332 1 -9.116 12.1539 -0.822212 -4.52194
333 1 -9.06111 14.1428 2.0835 -4.50718
334 1 -6.35259 11.6894 2.10097 -4.55263
335 1 -6.27853 14.3839 -1.18637 -4.44828
336 1 -5.28562 10.6 -2.24644 -4.55994
337 1 -5.30517 13.2596 0.574748 -4.47272
338 1 -2.4908 10.7499 0.928034 -4.54003
339 1 -2.60952 13.097 -2.07052 -4.58352
340 1 -3.99815 11.8524 -0.694071 -4.61691
341 1 -3.93836 14.2895 2.12735 -4.45272
342 1 -1.17617 11.99 2.52855 -4.55347
343 1 -1.24708 14.2779 -0.633424 -4.58121
344 1 0.00107533 10.4235 -1.92563 -4.55969
345 1 0.0621987 13.2203 0.926694 -4.55691
346 1 2.71682 10.5078 0.747565 -4.56743
347 1 2.53308 13.0594 -2.06448 -4.55579
348 1 1.21298 11.7549 -0.500931 -4.56846
349 1 1.36851 14.4711 2.33004 -4.57238
350 1 3.96588 11.8512 2.36519 -4.5661
351 1 3.95723 14.3346 -0.593922 -4.48025
352 1 5.33586 10.6764 -2.18203 -4.57389
353 1 5.39828 13.3288 1.07216 -4.4264
354 1 7.83361 10.6268 0.929987 -4.54683
355 1 7.58918 13.2627 -2.25043 -4.38742
356 1 6.53823 12.0136 -0.611892 -4.48317
357 1 6.63654 14.7135 2.75361 -4.5579
358 1 9.13486 12.0269 2.22064 -4.39434
359 1 8.99014 14.7334 -0.885226 -4.84476
360 1 10.3034 10.5543 56.1064 -4.38677
361 1 10.4091 13.2789 0.524102 -4.6282
362 1 12.8588 10.1649 -0.244721 -4.42264
363 1 12.7061 12.8865 55.5011 -4.31435
364 1 11.6014 12.0185 -1.14341 -4.81341
365 1 11.4118 14.2785 2.55256 -4.18016
366 1 14.0794 11.1331 2.60903 -4.31448
367 1 13.6365 13.4654 -1.03356 -4.27309
368 1 15.3393 10.075 55.5427 -4.19095
369 1 14.5854 11.6195 0.325225 -4.62306
370 1 16.2139 10.0329 -0.69472 -4.24263
371 1 -13.8558 15.5112 0.839329 -4.16741
372 1 -12.7873 15.9445 3.04664 -4.15121
373 1 -9.90845 16.8514 55.8191 -4.43864
374 1 -7.88404 15.1013 0.257174 -4.50682
375 1 -8.05731 18.0449 -1.97008 -4.07999
376 1 -9.36204 16.8191 -0.467488 -4.38899
377 1 -6.40694 16.1943 1.6855 -4.7365
378 1 -8.00772 18.6373 0.493778 -4.18631
379 1 -5.1249 15.9871 56.1709 -4.61046
380 1 -5.70227 18.0618 0.376408 -4.6654
381 1 -2.77581 15.6276 0.476955 -4.57234
382 1 -2.39089 18.6963 -2.38274 -4.52388
383 1 -3.80414 17.3193 -1.00478 -4.43949
384 1 -4.40805 19.1696 1.99752 -3.69237
385 1 -1.41884 16.842 1.98552 -4.56756
386 1 -0.392963 19.4811 -1.03535 -3.68082
387 1 0.208166 15.5279 -2.05845 -4.52502
388 1 0.138718 18.2058 0.950572 -4.61969
389 1 2.72013 15.7619 0.848029 -4.57814
390 1 2.82156 18.636 -1.56231 -4.39522
391 1 1.33796 16.9768 -0.644137 -4.62307
392 1 1.18964 19.5808 2.391 -4.47295
393 1 3.80546 17.0447 2.50979 -4.59164
394 1 2.91196 19.8705 0.576243 -4.20363
395 1 4.66351 15.8726 -2.32073 -4.3699
396 1 4.99825 18.7142 1.32301 -4.34408
397 1 7.65381 16.5364 -0.112743 -4.37799
398 1 8.87892 18.0697 -1.54287 -4.24741
399 1 5.71955 17.5792 -0.977448 -4.24252
400 1 5.62979 19.5532 3.44343 -3.60042
401 1 8.29561 16.2939 2.20263 -4.48851
402 1 9.84379 15.296 55.5511 -4.31357
403 1 12.081 14.8728 0.269765 -4.19974
404 1 10.7029 16.3623 -1.22044 -4.22425
405 1 1.6718 20.6199 -1.34283 -4.35325
406 1 -12.4315 -16.0039 3.85168 -4.2912
407 1 -7.70875 -17.978 3.40598 -3.62503
408 1 -9.21349 -16.6785 7.99423 -3.58958
409 1 -6.63141 -19.1778 9.04332 -4.08552
410 1 -6.56825 -16.8576 5.17045 -4.54111
411 1 -5.77197 -18.4314 6.92163 -4.18411
412 1 -2.62241 -18.3651 3.65327 -4.31815
413 1 -3.51017 -18.766 6.00893 -4.04801
414 1 -4.02387 -16.8789 7.57631 -4.79052
415 1 -1.62369 -19.1909 7.45092 -4.0794
416 1 -1.47707 -16.6614 4.71259 -4.67102
417 1 1.16068 -20.5781 1.57023 -3.76802
418 1 -0.0878611 -18.1267 6.00182 -4.51803
419 1 2.62713 -17.8614 3.05276 -4.5943
420 1 0.913107 -19.0316 4.06124 -3.99921
421 1 1.25588 -16.7399 7.53201 -4.49294
422 1 4.28659 -19.0343 8.31179 -4.41321
423 1 4.05661 -16.7926 4.891 -4.45508
424 1 5.46418 -18.0253 6.41412 -4.55803
425 1 8.05919 -17.9564 2.96464 -4.51294
426 1 7.31358 -18.6701 5.09652 -3.43674
427 1 6.72463 -16.6475 7.86624 -4.45321
428 1 9.32767 -17.3034 4.90706 -4.38937
429 1 13.083 -15.4579 9.1582 -4.21259
430 1 -17.7977 -9.99077 5.3947 -4.18406
431 1 -16.184 -11.9443 5.4455 -4.02997
432 1 -13.2047 -14.0006 4.5375 -4.35187
433 1 -12.1915 -12.5054 3.09825 -4.44325
434 1 -15.1874 -13.3928 3.48357 -4.4068
435 1 -14.7823 -11.4575 7.36979 -4.48055
436 1 -12.2011 -14.1332 7.21619 -4.14431
437 1 -11.581 -11.32 5.03168 -4.53658
438 1 -10.141 -15.8901 3.40301 -4.17847
439 1 -10.4476 -12.8203 6.32189 -4.64763
440 1 -7.95903 -15.3816 6.42368 -4.71082
441 1 -7.86846 -13.0102 3.57567 -4.60359
442 1 -9.23743 -14.3186 4.78194 -4.4631
443 1 -9.36182 -11.6185 8.05519 -4.54801
444 1 -6.71178 -14.0147 7.82633 -4.58715
445 1 -6.82346 -11.4202 4.98823 -4.59295
446 1 -5.1 -15.6682 3.69932 -4.56796
447 1 -5.34911 -12.7075 6.36087 -4.58136
448 1 -2.62873 -15.4664 6.39247 -4.46163
449 1 -2.55949 -12.7859 3.63905 -4.56785
450 1 -4.01721 -14.057 5.06118 -4.63449
451 1 -4.10003 -11.6552 8.06993 -4.57953
452 1 -1.39761 -13.977 7.72634 -4.56571
453 1 -1.3317 -11.4175 5.17248 -4.56682
454 1 0.0884852 -15.5349 3.31068 -4.60524
455 1 0.0106682 -12.932 6.1772 -4.55229
456 1 2.67153 -15.4355 6.18627 -4.63314
457 1 2.81983 -12.6177 3.5645 -4.62559
458 1 1.40711 -14.1064 4.65054 -4.57002
459 1 1.09583 -11.5845 7.84053 -4.58248
460 1 3.81641 -14.2147 7.79854 -4.5357
461 1 4.04461 -11.2676 5.13225 -4.51211
462 1 5.31534 -15.3895 3.62806 -4.5302
463 1 5.12146 -12.7914 6.51799 -4.59013
464 1 8.18948 -15.6197 6.23424 -4.50235
465 1 8.01944 -13.0568 3.83029 -4.59227
466 1 6.56097 -14.2684 5.21528 -4.56168
467 1 6.37425 -11.8477 8.21493 -4.55375
468 1 9.32314 -14.1436 7.80853 -4.46509
469 1 9.08155 -11.3372 5.21368 -4.54201
470 1 10.725 -15.6022 3.806 -4.53912
471 1 10.5201 -12.8133 6.22881 -4.62303
472 1 13.4612 -14.614 6.85692 -4.18867
473 1 13.5776 -13.0963 3.32002 -4.41375
474 1 12.155 -14.0099 5.00161 -4.40713
475 1 11.8393 -11.4975 7.64369 -4.46145
476 1 13.2392 -13.1232 8.79883 -4.99537
477 1 14.754 -11.7861 4.9119 -4.50744
478 1 15.4597 -13.2239 6.69095 -3.62934
479 1 15.6528 -12.8779 9.09736 -4.35482
480 1 -18.243 -7.75731 4.41903 -4.57705
481 1 -19.1639 -5.59392 9.06427 -4.32247
482 1 -16.8313 -9.11157 7.63731 -4.56242
483 1 -16.8696 -6.15744 5.55958 -4.61752
484 1 -15.9076 -9.987 4.15097 -4.59272
485 1 -15.4122 -7.5875 6.7051 -4.67212
486 1 -13.0849 -10.132 6.51567 -4.60781
487 1 -12.8965 -7.58783 3.55075 -4.52943
488 1 -14.2371 -8.71523 5.0719 -4.62639
489 1 -14.1063 -6.19104 8.18731 -4.5184
490 1 -12.104 -8.86743 8.25507 -4.53414
491 1 -11.8728 -6.34793 5.17193 -4.51914
492 1 -9.96546 -10.172 3.7093 -4.54697
493 1 -10.717 -7.7041 6.74025 -4.53999
494 1 -7.87318 -10.2728 6.72619 -4.57273
495 1 -7.96024 -7.62554 3.52544 -4.51718
496 1 -8.98167 -8.74836 5.31584 -4.46285
497 1 -9.30408 -6.51668 8.09554 -4.60932
498 1 -6.30028 -9.08717 8.07502 -4.57683
499 1 -6.63791 -6.44286 5.08221 -4.55562
500 1 -5.29657 -10.2408 3.64288 -4.5769
501 1 -5.16128 -7.58345 6.62898 -4.52152
502 1 -2.66035 -10.2968 6.85801 -4.54951
503 1 -2.50772 -7.56356 3.80021 -4.5761
504 1 -3.92115 -8.95958 5.26667 -4.54961
505 1 -4.04965 -6.39472 8.22988 -4.52763
506 1 -1.34343 -8.86693 8.13739 -4.54652
507 1 -1.276 -6.08131 5.24864 -4.5519
508 1 -0.0753405 -10.1398 3.75206 -4.55714
509 1 -0.110069 -7.53024 6.6607 -4.58939
510 1 2.5494 -10.1631 6.6242 -4.62978
511 1 2.57708 -7.72743 3.77339 -4.60319
512 1 1.20258 -8.8767 5.23725 -4.57443
513 1 1.03324 -6.22536 8.16619 -4.5255
514 1 3.94268 -8.91106 8.10459 -4.57756
515 1 3.95382 -6.38336 5.06426 -4.60533
516 1 5.31529 -10.2733 3.5093 -4.54408
517 1 5.29014 -7.81299 6.43461 -4.57386
518 1 7.64657 -10.4182 6.77896 -4.54085
519 1 7.84228 -7.58602 3.73868 -4.56634
520 1 6.61766 -9.1523 5.10482 -4.5766
521 1 6.53814 -6.59142 8.06571 -4.59236
522 1 9.07057 -9.02046 8.06853 -4.64077
523 1 9.01026 -6.30067 5.35781 -4.61791
524 1 10.2932 -10.0803 3.55236 -4.51119
525 1 10.4452 -7.61248 6.65643 -4.56199
526 1 13.2831 -10.345 6.2368 -4.52505
527 1 13.0294 -7.54065 3.81146 -4.58329
528 1 11.7266 -9.01918 5.15026 -4.61808
529 1 11.73 -6.43823 8.18161 -4.57782
530 1 14.3992 -9.09232 8.05507 -4.5102
531 1 14.291 -6.20626 5.355 -4.44499
532 1 15.9162 -10.4237 3.17893 -4.47074
533 1 15.5969 -7.68868 6.64124 -4.68755
534 1 17.4726 -6.88891 3.27878 -4.51613
535 1 16.5024 -8.62464 4.57548 -3.61107
536 1 17.0018 -6.4927 8.23398 -4.15424
537 1 18.7155 -5.51961 4.76624 -3.62298
538 1 -18.3457 -4.74031 6.83729 -4.40778
539 1 -17.7617 -2.69483 3.75143 -4.38436
540 1 -19.3937 -3.91309 4.98589 -4.47658
541 1 -19.8289 -1.6124 5.98396 -3.93525
542 1 -17.1009 -3.26459 8.00114 -4.58045
543 1 -17.6079 -0.731798 5.28554 -5.29556
544 1 -15.4244 -5.2828 3.871 -4.42847
545 1 -15.7142 -2.04517 6.54719 -4.24235
546 1 -13.1563 -4.92296 6.48742 -4.55368
547 1 -13.0839 -2.70233 3.51755 -4.56684
548 1 -14.483 -3.5269 5.1949 -4.54093
549 1 -14.3183 -0.983576 8.0443 -4.55355
550 1 -11.6877 -3.76552 7.96546 -4.62275
551 1 -11.8531 -1.42437 5.02939 -4.5671
552 1 -10.3796 -5.28953 3.83407 -4.50311
553 1 -10.3592 -2.43759 6.55158 -4.58461
554 1 -8.01744 -5.17854 6.69967 -4.57393
555 1 -7.84909 -2.60955 3.54346 -4.61223
556 1 -9.11049 -3.82665 5.19017 -4.57789
557 1 -9.12371 -1.25907 8.08916 -4.5224
558 1 -6.50728 -3.84419 8.02189 -4.54362
559 1 -6.41205 -1.25275 4.84454 -4.55225
560 1 -5.26592 -5.02786 3.78208 -4.55921
561 1 -5.32502 -2.53846 6.46514 -4.55345
562 1 -2.61612 -4.92481 6.8519 -4.54204
563 1 -2.53193 -2.46545 3.61211 -4.55852
564 1 -3.82498 -3.75117 5.15009 -4.59183
565 1 -3.93234 -1.36443 7.9716 -4.52014
566 1 -1.38243 -3.69655 8.40512 -4.57128
567 1 -1.29731 -1.0909 5.08684 -4.5901
568 1 0.110642 -4.98739 3.84488 -4.52757
569 1 -0.1715 -2.48636 6.70322 -4.53988
570 1 2.60905 -5.28241 6.69204 -4.59403
571 1 2.6857 -2.46991 3.60592 -4.51937
572 1 1.45504 -3.7169 5.29996 -4.58954
573 1 1.32181 -1.22418 7.92748 -4.59988
574 1 4.01629 -3.97763 8.07759 -4.62756
575 1 3.89529 -1.38138 5.24042 -4.522
576 1 5.21097 -4.97989 3.69148 -4.53841
577 1 5.34824 -2.5815 6.72182 -4.60266
578 1 7.71216 -4.99201 6.79468 -4.53628
579 1 7.93671 -2.39448 3.76675 -4.60053
580 1 6.61081 -3.80436 5.10995 -4.53358
581 1 6.7766 -1.28261 8.10895 -4.50524
582 1 9.32911 -3.74935 8.26483 -4.51064
583 1 9.25758 -0.953282 5.02129 -4.54609
584 1 10.2925 -4.94743 3.88223 -4.56922
585 1 10.3317 -2.26019 6.7219 -4.54633
586 1 13.0495 -4.96898 6.91943 -4.56832
587 1 12.8587 -2.51042 3.7958 -4.56204
588 1 11.6963 -3.81433 5.43036 -4.57561
589 1 11.7874 -1.1709 8.2528 -4.56801
590 1 14.377 -3.62603 8.31887 -4.52673
591 1 14.329 -1.32323 5.25164 -4.59315
592 1 15.8002 -5.08892 3.73236 -4.78984
593 1 15.8328 -2.49308 6.59957 -4.33176
594 1 17.9029 -4.86337 6.91015 -3.59196
595 1 18.7903 -2.18122 3.14465 -4.27992
596 1 17.3598 -3.55388 4.83827 -4.80904
597 1 16.9207 -0.862941 7.83879 -4.546
598 1 19.0074 -1.90346 8.60322 -4.55925
599 1 19.4641 -0.462111 4.69435 -4.34754
600 1 -19.6353 0.238399 4.48715 -4.10818
601 1 -18.0257 0.745079 7.19971 -4.47063
602 1 -18.2374 3.08023 3.94194 -4.65158
603 1 -19.283 2.15668 5.83509 -4.59474
604 1 -19.1698 3.80486 7.53334 -3.62387
605 1 -16.7201 2.12338 8.52806 -4.54312
606 1 -16.8981 4.5118 5.34101 -4.58682
607 1 -15.8806 0.148015 3.84945 -4.27608
608 1 -15.476 3.049 6.82237 -4.43139
609 1 -12.8784 0.114316 6.56358 -4.58467
610 1 -12.8009 2.48309 3.85829 -4.5878
611 1 -14.4656 1.46511 5.2348 -4.54511
612 1 -14.0504 4.18244 8.32536 -4.55399
613 1 -11.6103 1.47268 8.01721 -4.50853
614 1 -11.5355 4.05301 5.18294 -4.60995
615 1 -10.3595 -0.116817 3.64648 -4.60167
616 1 -10.2171 2.69092 6.6101 -4.5892
617 1 -7.78814 -0.22566 6.49078 -4.55948
618 1 -7.76214 2.65731 3.69622 -4.55392
619 1 -9.03448 1.34067 5.07377 -4.57699
620 1 -8.79529 4.09557 7.94188 -4.58166
621 1 -6.45837 1.16793 7.83952 -4.58412
622 1 -6.5748 4.14538 5.14329 -4.52674
623 1 -5.18803 0.162594 3.45292 -4.57481
624 1 -5.18318 2.80018 6.52996 -4.58717
625 1 -2.688 0.0715982 6.60247 -4.57354
626 1 -2.59561 2.8524 3.62071 -4.56444
627 1 -3.84647 1.44014 4.97371 -4.56842
628 1 -3.81461 3.97322 8.03216 -4.5751
629 1 -1.33072 1.42938 7.9844 -4.61011
630 1 -1.14666 4.0609 5.14905 -4.58357
631 1 -0.047886 0.270328 3.59653 -4.56159
632 1 0.0602705 2.73866 6.69893 -4.55996
633 1 2.74614 0.104611 6.58543 -4.60569
634 1 2.98141 2.61242 3.83859 -4.53657
635 1 1.37731 1.4576 5.19064 -4.58865
636 1 1.32848 4.21788 8.18525 -4.57395
637 1 3.9138 1.57412 8.08926 -4.53754
638 1 3.88246 4.32687 5.24897 -4.55785
639 1 5.16148 0.00518373 3.76923 -4.57945
640 1 5.18952 2.73473 6.64144 -4.53698
641 1 7.89304 0.208417 6.54463 -4.56071
642 1 7.88478 2.98013 3.72564 -4.5843
643 1 6.51309 1.48852 5.079 -4.58262
644 1 6.51457 4.16995 7.97128 -4.56974
645 1 8.9936 1.34956 8.26632 -4.56559
646 1 9.35149 4.07965 5.28983 -4.56556
647 1 10.4592 0.453281 3.59219 -4.58292
648 1 10.4446 2.67983 6.85702 -4.60103
649 1 12.9938 0.0901989 6.71248 -4.56888
650 1 13.0763 2.87866 3.84266 -4.58286
651 1 11.6941 1.5451 5.24969 -4.53153
652 1 11.8723 4.1045 8.14101 -4.55539
653 1 14.2559 1.43974 8.20543 -4.58085
654 1 14.2995 4.45236 5.06721 -4.50345
655 1 15.3961 -0.0114234 3.67342 -4.50467
656 1 15.2896 3.01814 6.6985 -4.53944
657 1 17.8172 0.375305 6.13972 -4.66299
658 1 17.8241 2.51925 3.14832 -4.55414
659 1 16.4136 1.72051 4.99374 -4.56308
660 1 16.8683 4.26006 7.82721 -4.52992
661 1 19.2287 1.86151 7.22621 -4.50697
662 1 19.3872 3.85481 4.27371 -4.54988
663 1 20.4089 1.77826 4.99247 -4.11662
664 1 -19.0139 6.13359 7.66825 -4.53746
665 1 -17.6678 8.06792 4.1842 -3.43873
666 1 -18.5924 6.03067 5.28024 -4.43641
667 1 -16.6031 6.59059 8.11866 -4.63119
668 1 -16.8856 9.84446 5.59336 -4.54387
669 1 -15.5403 5.34761 3.64762 -4.53608
670 1 -15.5978 8.1987 6.73152 -4.55691
671 1 -12.9482 5.43085 6.60791 -4.53688
672 1 -12.9592 8.11808 3.83323 -4.54586
673 1 -14.3654 6.78921 5.12656 -4.58282
674 1 -13.9382 9.11374 8.14903 -4.67658
675 1 -11.5058 6.57568 8.15692 -4.63698
676 1 -11.3989 9.00103 5.4621 -4.53094
677 1 -10.4345 5.4862 3.63774 -4.55642
678 1 -10.0055 7.97502 6.96396 -4.50525
679 1 -7.5423 5.56582 6.64394 -4.50998
680 1 -7.81595 7.9115 3.65468 -4.54086
681 1 -9.09777 6.68516 5.27956 -4.49279
682 1 -9.03026 9.35289 8.52889 -4.52917
683 1 -6.47476 6.91776 8.36568 -4.4754
684 1 -6.37418 9.15402 5.18476 -4.54909
685 1 -5.2834 5.41819 3.55735 -4.55873
686 1 -5.08627 8.01098 6.74962 -4.54658
687 1 -2.53068 5.24238 6.57705 -4.52885
688 1 -2.73288 7.88711 3.72519 -4.59659
689 1 -4.06714 6.62531 5.17822 -4.51876
690 1 -3.78155 9.30715 8.15328 -4.54253
691 1 -1.43029 6.6421 8.22063 -4.57007
692 1 -1.25102 9.19294 5.08192 -4.60497
693 1 0.125343 5.34595 3.63391 -4.58158
694 1 -0.0759049 7.91423 6.70209 -4.5053
695 1 2.5715 5.67986 6.73447 -4.56114
696 1 2.60194 8.14583 3.69202 -4.59193
697 1 1.2527 6.78095 5.14475 -4.56496
698 1 1.46548 9.41564 8.12665 -4.53027
699 1 4.18024 6.67187 8.21487 -4.56855
700 1 3.99538 9.2193 5.28362 -4.54684
701 1 5.18118 5.71183 3.81385 -4.55712
702 1 5.39223 8.06523 6.76382 -4.58963
703 1 8.08575 5.51196 6.6766 -4.59578
704 1 8.03381 8.16614 3.84793 -4.56476
705 1 6.70066 6.75721 5.24497 -4.62897
706 1 6.9855 9.39677 8.04527 -4.51329
707 1 9.29426 6.85017 8.18721 -4.58152
708 1 9.23428 9.63095 5.35316 -4.50952
709 1 10.6522 5.51807 3.75421 -4.53717
710 1 10.5485 8.35 6.89384 -4.35224
711 1 12.895 5.48245 6.57448 -4.50531
712 1 13.07 7.87371 3.49687 -4.24856
713 1 11.6482 6.96093 5.26425 -4.48518
714 1 12.0071 9.71633 8.33601 -4.8815
715 1 14.2256 6.83185 8.16469 -4.40578
716 1 14.3898 8.64679 5.32697 -4.42429
717 1 15.6019 5.49111 3.33009 -4.28383
718 1 15.7204 8.60378 7.38415 -4.76249
719 1 17.8314 4.98991 5.80117 -4.26661
720 1 19.1708 7.56074 3.50812 -4.27897
721 1 17.0246 6.92379 4.56303 -4.82673
722 1 17.2092 10.0467 8.58348 -4.21192
723 1 19.1877 7.0021 5.85706 -3.80776
724 1 -15.9814 11.575 6.99664 -4.13775
725 1 -15.6448 10.7751 3.79949 -4.50152
726 1 -15.3184 13.3591 5.5787 -4.24703
727 1 -12.4899 10.4286 6.90925 -4.4666
728 1 -12.4183 12.6749 4.16931 -4.0064
729 1 -14.0699 11.3991 5.38162 -5.02933
730 1 -13.5732 14.6032 6.73428 -3.98022
731 1 -11.2029 11.9987 8.0417 -4.59421
732 1 -11.3508 14.4706 5.41961 -5.32161
733 1 -10.0604 10.243 3.91369 -4.54343
734 1 -9.83305 13.2862 6.69074 -4.34436
735 1 -7.69165 10.3463 6.7958 -4.55117
736 1 -7.60936 12.9886 3.58613 -4.59561
737 1 -8.76403 11.7282 5.25145 -4.57112
738 1 -8.30084 14.6617 7.92574 -4.55473
739 1 -6.52492 11.8241 8.11658 -4.57503
740 1 -6.15931 14.5103 4.63943 -4.57597
741 1 -5.08964 10.6434 3.79614 -4.53833
742 1 -5.3338 13.2823 6.6241 -4.48801
743 1 -2.52605 10.5369 6.59909 -4.55725