ITEM: TIMESTEP
52000
ITEM: NUMBER OF ATOMS
4050
ITEM: BOX BOUNDS ss ss pp
-2.1248579928461201e+01 2.1248800637729556e+01
-2.1848011965178586e+01 2.1409783476494049e+01
-7.0603000000000016e-01 5.5016030000000001e+01
ITEM: ATOMS id type x y z c_peratom
1 1 -12.5335 -15.6515 1.49472 -4.10684
2 1 -7.79458 -18.5527 0.370156 -4.67103
3 1 -9.24645 -17.8268 3.13486 -4.51568
4 1 -7.7413 -19.584 2.65463 -4.35985
5 1 -6.30689 -16.9706 1.23947 -4.69467
6 1 -5.51467 -18.756 2.58629 -4.6061
7 1 -2.59656 -18.5273 -0.534708 -4.70707
8 1 -4.5513 -19.3304 0.441586 -3.8481
9 1 -3.81315 -17.6676 3.81471 -4.43967
10 1 -0.762215 -19.9934 4.4686 -4.26211
11 1 -1.34123 -17.1014 0.840572 -4.49366
12 1 0.21967 -20.2451 1.2157 -4.67804
13 1 -0.660407 -18.5936 2.56989 -4.61114
14 1 3.70835 -18.5409 54.7922 -4.56265
15 1 2.30993 -19.2825 0.739961 -3.79588
16 1 1.37085 -17.4066 3.13685 -4.5511
17 1 3.36813 -19.9581 2.84609 -4.42848
18 1 4.25235 -16.8677 0.582197 -4.63993
19 1 5.3352 -18.6265 1.86009 -4.2808
20 1 7.98314 -18.4087 0.168087 -3.65107
21 1 9.99038 -18.7914 2.24678 -3.75391
22 1 6.57803 -17.2776 3.32102 -4.46863
23 1 9.5197 -16.7974 1.12391 -4.9322
24 1 11.5761 -16.992 2.52799 -4.20828
25 1 -15.5893 -12.8119 1.62286 -4.01209
26 1 -15.7852 -14.1734 3.55594 -4.21065
27 1 -14.45 -15.9636 2.785 -4.14162
28 1 -12.8922 -13.2327 55.2183 -4.43933
29 1 -14.3943 -14.6009 0.630921 -4.3681
30 1 -14.5139 -12.061 3.74125 -4.68752
31 1 -11.4756 -14.8029 3.5105 -4.83469
32 1 -11.6337 -11.7308 1.02634 -4.5301
33 1 -10.7278 -15.8821 -0.229489 -4.30765
34 1 -10.2841 -13.2288 2.2879 -4.45059
35 1 -7.95594 -15.9629 2.49992 -4.60829
36 1 -7.74694 -13.0479 -0.550493 -4.60051
37 1 -9.01065 -14.5157 0.855999 -4.61046
38 1 -9.18251 -11.8812 3.87254 -4.59698
39 1 -6.46836 -14.509 3.65059 -4.55603
40 1 -6.34169 -11.8852 0.891582 -4.56858
41 1 -5.33559 -16.0893 -0.662259 -4.49193
42 1 -5.02131 -13.3917 2.09358 -4.5757
43 1 -2.65957 -16.1248 2.42147 -4.50759
44 1 -2.6498 -13.4413 -0.690602 -4.58439
45 1 -3.83048 -14.9291 0.74979 -4.58671
46 1 -3.83731 -12.1657 3.76309 -4.57143
47 1 -1.25721 -14.8606 3.68535 -4.56501
48 1 -1.42526 -12.1061 0.776409 -4.6221
49 1 0.31778 -16.1663 -0.51766 -4.4831
50 1 -0.00305162 -13.3679 2.1614 -4.54517
51 1 2.66893 -15.7477 2.14154 -4.51106
52 1 2.81976 -13.102 -0.66332 -4.57816
53 1 1.39136 -14.4041 0.722075 -4.6089
54 1 1.22999 -11.9524 3.61451 -4.62195
55 1 3.92214 -14.587 3.70379 -4.58614
56 1 3.92355 -11.7419 0.84322 -4.57087
57 1 5.74458 -15.5955 -0.851462 -4.54455
58 1 5.18878 -13.2034 2.2687 -4.59048
59 1 7.88186 -15.6449 2.25322 -4.49382
60 1 8.05219 -12.9404 -0.629682 -4.55934
61 1 6.66328 -14.2281 0.728673 -4.57864
62 1 6.70315 -11.8513 3.40237 -4.54626
63 1 9.37983 -14.5798 3.71408 -4.6235
64 1 9.3622 -11.634 0.701141 -4.48147
65 1 11.0068 -15.7796 55.0451 -4.30507
66 1 10.3425 -12.8291 2.40546 -4.47837
67 1 13.2848 -15.5446 1.66731 -4.4171
68 1 12.8013 -12.6122 -0.166916 -4.15887
69 1 11.516 -14.1555 0.942829 -4.68915
70 1 11.9184 -11.8054 3.741 -4.6036
71 1 14.6403 -13.9771 2.66407 -4.04565
72 1 14.4475 -12.031 1.44128 -5.37085
73 1 16.4475 -13.4703 1.21216 -4.08914
74 1 16.7529 -11.4708 2.40421 -4.11666
75 1 -18.0979 -7.99415 54.9046 -3.74533
76 1 -19.4769 -5.25324 4.31307 -4.31125
77 1 -17.3759 -8.84636 3.79566 -3.72678
78 1 -17.3453 -6.43086 0.78723 -4.57394
79 1 -15.7957 -11.2484 -0.435589 -4.21543
80 1 -15.9583 -7.90626 2.19603 -4.65814
81 1 -13.3288 -10.636 2.23046 -4.46414
82 1 -13.2431 -7.98788 -0.511024 -4.5965
83 1 -14.7581 -9.36772 0.737084 -4.54802
84 1 -14.6736 -6.51297 3.62413 -4.59911
85 1 -11.9362 -9.44866 3.72523 -4.58427
86 1 -11.9965 -6.63542 0.957537 -4.55926
87 1 -10.5049 -10.5866 -0.726946 -4.56437
88 1 -10.5831 -8.06948 2.21061 -4.60317
89 1 -7.98038 -10.809 2.18653 -4.55224
90 1 -8.11655 -7.91882 -0.713615 -4.5579
91 1 -9.25396 -9.40342 0.82195 -4.59313
92 1 -9.32755 -6.59599 3.51414 -4.60176
93 1 -6.76091 -9.4642 3.64155 -4.63464
94 1 -6.76245 -6.79162 0.755825 -4.571
95 1 -5.26729 -10.579 -0.818665 -4.5894
96 1 -5.39233 -8.08332 2.22784 -4.58526
97 1 -2.69328 -10.6549 2.2265 -4.55568
98 1 -2.80229 -7.83787 -0.673642 -4.58833
99 1 -4.01485 -9.36675 0.821001 -4.58965
100 1 -3.84701 -6.96168 3.49989 -4.58057
101 1 -1.32378 -9.36279 3.54684 -4.62409
102 1 -1.34323 -6.63014 0.722753 -4.59227
103 1 -0.0279359 -10.7156 55.2075 -4.58843
104 1 -0.0546732 -7.82313 2.27155 -4.55786
105 1 2.7009 -10.4914 2.34864 -4.58625
106 1 2.76793 -7.81552 55.2204 -4.59571
107 1 1.33906 -9.29488 0.781832 -4.56116
108 1 1.35117 -6.4251 3.65448 -4.60661
109 1 4.04433 -9.29449 3.85296 -4.59007
110 1 4.09658 -6.63646 0.958453 -4.49204
111 1 5.36164 -10.4034 -0.502024 -4.64327
112 1 5.30797 -8.02136 2.24153 -4.54616
113 1 8.0864 -10.4734 2.15107 -4.5565
114 1 8.19959 -7.881 -0.499851 -4.55628
115 1 6.8253 -9.122 0.833241 -4.58728
116 1 6.65472 -6.69985 3.63225 -4.61146
117 1 9.37347 -9.20364 3.64493 -4.58774
118 1 9.26683 -6.4397 0.983314 -4.61125
119 1 10.6169 -10.275 -0.64559 -4.57154
120 1 10.7423 -7.92715 2.21543 -4.605
121 1 13.2361 -10.2703 2.55024 -4.37335
122 1 13.4964 -7.82835 -0.758571 -4.57286
123 1 12.218 -9.12406 0.774131 -4.54394
124 1 12.0872 -6.69483 3.61749 -4.60555
125 1 14.7466 -9.0743 3.77428 -4.6407
126 1 14.5804 -6.57649 0.893484 -4.61918
127 1 15.448 -10.8938 -0.512633 -4.37881
128 1 16.0499 -7.80523 2.17173 -4.56382
129 1 18.3989 -8.39065 -0.744797 -3.50941
130 1 16.9944 -9.66389 0.850105 -4.58525
131 1 17.6702 -6.41906 3.14575 -4.53389
132 1 19.2585 -6.32094 -0.120524 -3.53562
133 1 -19.01 -5.02195 2.01836 -4.2486
134 1 -18.4654 -2.41723 -0.326029 -5.04159
135 1 -19.6594 -2.7728 1.75047 -3.56898
136 1 -20.1655 -1.13192 4.24474 -4.14178
137 1 -17.4778 -4.11227 3.72941 -4.95894
138 1 -17.2971 -0.807213 0.935288 -4.44341
139 1 -15.8309 -5.27139 -0.637713 -4.6311
140 1 -16.2151 -2.59776 2.26222 -4.30912
141 1 -13.2657 -5.15558 2.19685 -4.60452
142 1 -13.2221 -2.54041 55.1436 -4.59086
143 1 -14.7395 -3.77102 0.866493 -4.59284
144 1 -14.8793 -1.20854 3.62587 -4.59919
145 1 -12.0506 -3.73228 3.60908 -4.60741
146 1 -11.9552 -1.26638 0.909424 -4.5533
147 1 -10.893 -5.32805 -0.591021 -4.56387
148 1 -10.4085 -2.71303 2.27865 -4.50898
149 1 -8.03735 -5.36333 2.04512 -4.59872
150 1 -8.13905 -2.73439 -0.82098 -4.58768
151 1 -9.32328 -3.9754 0.78551 -4.49569
152 1 -9.31219 -1.18698 3.7485 -4.5955
153 1 -6.6366 -4.00655 3.30832 -4.60172
154 1 -6.91052 -1.38912 0.648921 -4.57965
155 1 -5.47716 -5.3856 55.122 -4.59266
156 1 -5.32484 -2.56404 2.0585 -4.59319
157 1 -2.62554 -5.37737 2.23851 -4.60473
158 1 -2.80117 -2.5171 55.2207 -4.57821
159 1 -3.94196 -4.10079 0.686004 -4.54742
160 1 -4.03735 -1.17525 3.56199 -4.59985
161 1 -1.43578 -3.75529 3.40958 -4.57093
162 1 -1.21872 -1.21799 0.651256 -4.58227
163 1 -0.0683294 -5.18704 55.2505 -4.58915
164 1 0.087686 -2.38846 2.13107 -4.57149
165 1 2.71515 -5.31745 2.13975 -4.57306
166 1 2.77282 -2.53426 -0.661456 -4.61035
167 1 1.44776 -3.84061 0.83701 -4.60425
168 1 1.21253 -0.915965 3.5442 -4.59485
169 1 3.88113 -3.81996 3.59854 -4.60116
170 1 4.03507 -1.15088 0.671061 -4.59231
171 1 5.19616 -5.18271 55.1857 -4.56062
172 1 5.31056 -2.54286 2.19223 -4.62041
173 1 7.83489 -5.12732 2.32011 -4.58087
174 1 7.93875 -2.54759 -0.70807 -4.59114
175 1 6.69134 -3.90696 0.707118 -4.59556
176 1 6.85354 -1.16342 3.39661 -4.59487
177 1 9.22106 -3.75733 3.53807 -4.57905
178 1 9.44431 -1.21996 0.43686 -4.537
179 1 10.6368 -5.14228 -0.442898 -4.54771
180 1 10.6335 -2.58707 2.0555 -4.59853
181 1 13.2826 -5.20588 2.29939 -4.56665
182 1 13.2144 -2.27647 -0.517872 -4.57091
183 1 12.0413 -3.85184 0.884132 -4.54339
184 1 11.9402 -1.26083 3.53477 -4.57207
185 1 14.8624 -4.02551 3.56194 -4.55248
186 1 14.7549 -1.10696 0.949386 -4.53919
187 1 16.0475 -5.27953 -0.3645 -4.37733
188 1 16.1308 -2.55607 2.29571 -4.53277
189 1 18.9906 -4.94884 1.79467 -4.58047
190 1 18.8793 -2.47218 54.9273 -4.61488
191 1 17.4445 -3.67709 0.672967 -4.6864
192 1 17.3272 -1.02589 3.50846 -4.63139
193 1 19.8024 -2.78814 2.24698 -3.69292
194 1 20.1403 -1.04061 0.572576 -4.32599
195 1 -20.5732 -1.32364 0.0544029 -4.38608
196 1 -19.897 0.887971 3.1801 -4.00506
197 1 -18.6031 2.45832 -0.446866 -4.32934
198 1 -19.2695 0.594759 0.960386 -4.51247
199 1 -19.5218 4.76238 4.49441 -3.74731
200 1 -17.658 1.24024 3.81795 -4.44169
201 1 -17.2597 3.78118 1.20313 -4.3444
202 1 -16.0309 0.128982 54.9087 -4.6115
203 1 -16.0177 2.16769 2.46164 -4.51073
204 1 -13.4007 -0.0532971 2.26649 -4.6
205 1 -13.2846 2.80086 -0.592454 -4.58581
206 1 -14.5945 1.34476 0.791166 -4.54932
207 1 -14.7369 3.82219 3.45151 -4.54197
208 1 -11.9194 1.42359 3.36414 -4.56002
209 1 -11.9313 4.24513 0.696078 -4.61307
210 1 -10.6804 0.0929159 -0.482296 -4.56168
211 1 -10.6789 2.92039 2.14708 -4.58562
212 1 -8.05343 0.0356235 2.06383 -4.59233
213 1 -7.96938 2.79242 54.9465 -4.6044
214 1 -9.41521 1.55179 0.739075 -4.6056
215 1 -9.23451 4.17488 3.48271 -4.61136
216 1 -6.57233 1.42256 3.2636 -4.60523
217 1 -6.54465 4.05708 0.665675 -4.64827
218 1 -5.38305 -0.0863994 55.0673 -4.57664
219 1 -5.05389 2.74741 1.85858 -4.52531
220 1 -2.60846 0.015493 1.99918 -4.57744
221 1 -2.51415 2.71321 -0.868615 -4.57621
222 1 -3.85627 1.20298 0.435314 -4.58341
223 1 -3.77798 4.07248 3.52604 -4.5866
224 1 -1.43161 1.51384 3.45959 -4.57318
225 1 -1.15115 3.95387 0.644571 -4.53591
226 1 -0.0446574 0.194963 -0.739773 -4.57403
227 1 0.0638145 2.65503 2.11611 -4.60099
228 1 2.80236 0.17962 2.12975 -4.57308
229 1 2.5571 2.72674 54.987 -4.6028
230 1 1.34699 1.31534 0.703169 -4.58218
231 1 1.52123 4.06006 3.53416 -4.59225
232 1 4.14236 1.53418 3.46928 -4.60927
233 1 3.91092 4.0634 0.608626 -4.61124
234 1 5.3441 0.168328 -0.846972 -4.5825
235 1 5.43465 2.81086 1.95137 -4.57026
236 1 8.27459 0.102115 1.93997 -4.58845
237 1 8.14773 2.69552 -0.746797 -4.60413
238 1 6.76833 1.42302 0.69735 -4.61939
239 1 6.71399 4.17977 3.5332 -4.59928
240 1 9.26355 1.74087 3.34164 -4.54677
241 1 9.17916 4.22139 0.725514 -4.58716
242 1 10.7979 0.0916217 54.8613 -4.62147
243 1 10.7287 2.92064 1.89675 -4.63057
244 1 13.0776 0.0743639 1.99216 -4.62203
245 1 13.3955 2.66505 54.6762 -4.54801
246 1 12.1005 1.54038 0.496209 -4.51053
247 1 12.0038 4.23784 3.31033 -4.59719
248 1 14.2271 1.54108 3.42368 -4.59795
249 1 14.5441 3.94162 0.55258 -4.64426
250 1 15.7239 0.291143 55.011 -4.49238
251 1 15.899 2.66057 2.02542 -4.37992
252 1 18.7364 0.182113 2.02244 -4.49088
253 1 18.2265 2.15476 54.4513 -4.46495
254 1 17.2158 1.38469 0.640279 -4.57244
255 1 17.3982 4.03361 3.21293 -4.85726
256 1 20.1688 0.971835 3.82541 -4.33969
257 1 20.0829 3.51407 -0.476781 -4.17377
258 1 20.3351 1.0709 54.639 -3.87214
259 1 -18.635 5.44222 2.2843 -4.36528
260 1 -18.1823 8.10917 54.0327 -4.53454
261 1 -18.5916 6.33152 -0.149964 -4.07469
262 1 -17.2239 6.81537 3.47075 -4.70823
263 1 -17.041 9.28084 0.0426079 -3.58428
264 1 -16.3655 5.08381 -0.59018 -5.32525
265 1 -16.057 8.1175 1.87001 -4.60417
266 1 -13.5089 5.32948 2.09912 -4.60569
267 1 -13.5417 7.9938 -0.64653 -4.53701
268 1 -14.9069 6.5297 0.538437 -4.31148
269 1 -14.8608 9.39241 3.40366 -4.48127
270 1 -12.2215 6.80242 3.318 -4.58399
271 1 -12.1121 9.49995 0.511977 -4.55563
272 1 -10.6749 5.53961 -0.772539 -4.60081
273 1 -10.7715 8.06244 1.90711 -4.61336
274 1 -7.92514 5.42953 1.98465 -4.57095
275 1 -7.91221 8.27269 55.0208 -4.57456
276 1 -9.27583 6.79353 0.551335 -4.61105
277 1 -9.37188 9.18608 3.39528 -4.54362
278 1 -6.47855 6.48163 3.52706 -4.63194
279 1 -6.60209 9.42216 0.977467 -4.56431
280 1 -5.19589 5.41393 54.9811 -4.61157
281 1 -5.23112 7.98169 2.16134 -4.59106
282 1 -2.32027 5.32544 2.20366 -4.6034
283 1 -2.62032 7.86218 55.0541 -4.60931
284 1 -3.85953 6.53876 0.819993 -4.59881
285 1 -3.95663 9.40202 3.55873 -4.63453
286 1 -1.24514 6.76374 3.69939 -4.55985
287 1 -1.22561 9.38225 0.618311 -4.58636
288 1 0.232114 5.3415 -0.893633 -4.50396
289 1 -0.116001 7.98048 2.0661 -4.50781
290 1 2.58338 5.44959 1.89965 -4.60385
291 1 2.75159 8.10146 55.0328 -4.56226
292 1 1.19195 6.92406 0.566241 -4.53639
293 1 1.26715 9.47152 3.16769 -4.56605
294 1 4.06822 6.8359 3.23454 -4.58948
295 1 4.11344 9.58954 0.600801 -4.60809
296 1 5.42121 5.43472 -0.690887 -4.5903
297 1 5.44154 8.09789 1.94092 -4.58657
298 1 8.01988 5.69688 2.24902 -4.57735
299 1 8.34565 8.18435 -0.684572 -4.60437
300 1 6.87215 6.90262 0.575616 -4.57855
301 1 6.6806 9.63953 3.26898 -4.56088
302 1 9.62601 7.08221 3.25042 -4.59037
303 1 9.59794 9.69167 0.67797 -4.57201
304 1 10.6481 5.32061 55.0437 -4.55391
305 1 11.1724 8.45338 2.00326 -4.36001
306 1 13.2467 5.48268 1.78913 -4.60173
307 1 13.4703 8.05934 54.6584 -4.35995
308 1 12.0176 6.96256 0.431816 -4.57599
309 1 12.5684 9.97783 3.31777 -4.8978
310 1 14.7239 6.75186 3.13717 -4.45665
311 1 15.2706 9.05325 0.0139975 -4.6605
312 1 15.7767 5.60388 -0.708369 -4.53716
313 1 16.3707 8.08294 1.96011 -4.67585
314 1 18.9384 4.63659 1.36936 -4.05729
315 1 18.5248 7.07217 54.2579 -3.76314
316 1 17.5406 6.48998 0.530985 -4.52153
317 1 17.4979 8.38404 4.178 -3.91331
318 1 19.6238 5.16905 3.63112 -4.15985
319 1 -16.3555 13.5365 4.5056 -4.2393
320 1 -15.7822 11.0184 -0.863543 -4.70755
321 1 -15.7389 13.8694 2.20298 -4.18435
322 1 -13.3109 10.6292 2.24738 -4.58921
323 1 -13.2324 13.2562 -0.256707 -4.65439
324 1 -14.7499 11.9858 1.12405 -4.56984
325 1 -14.0912 14.3497 3.87422 -4.83566
326 1 -11.8957 11.9952 3.56876 -4.5493
327 1 -12.361 15.0369 0.931951 -4.6561
328 1 -10.8171 10.7643 54.844 -4.58302
329 1 -10.8196 13.4083 1.91594 -4.50461
330 1 -8.21973 10.7379 2.06894 -4.58267
331 1 -7.75787 13.3352 54.9866 -4.57892
332 1 -9.33969 12.0936 0.530789 -4.55706
333 1 -9.42961 14.3995 3.58257 -4.55519
334 1 -6.64476 11.9889 3.38461 -4.59694
335 1 -6.55848 14.651 0.737436 -4.56325
336 1 -5.231 10.6486 -0.62414 -4.56888
337 1 -5.13955 13.4065 2.19093 -4.57094
338 1 -2.40971 10.695 2.27185 -4.54083
339 1 -2.52067 13.1329 -0.699323 -4.59232
340 1 -3.93204 11.9533 0.803753 -4.59945
341 1 -3.82732 14.6232 3.54456 -4.50701
342 1 -1.28171 12.1309 3.57594 -4.58037
343 1 -1.31095 14.6329 0.728129 -4.62777
344 1 0.258157 10.6072 -0.766631 -4.60204
345 1 0.0969999 13.3773 2.15723 -4.61183
346 1 2.87634 10.9889 2.10269 -4.58341
347 1 3.01386 13.3331 -0.606858 -4.6065
348 1 1.42713 12.1434 0.670482 -4.6066
349 1 1.43939 14.6848 3.61346 -4.58089
350 1 4.26724 12.4094 3.57404 -4.5275
351 1 4.2286 14.8603 0.745353 -4.55746
352 1 5.70469 10.8621 -0.638712 -4.60146
353 1 5.67677 13.6016 2.18318 -4.51496
354 1 8.2956 11.0237 2.09281 -4.5816
355 1 8.24202 13.7028 54.9342 -4.41163
356 1 7.03568 12.3138 0.675326 -4.55637
357 1 6.80259 15.0057 3.73902 -4.5476
358 1 9.53254 12.4131 3.62124 -4.4054
359 1 9.69437 15.1185 0.555247 -4.76725
360 1 10.7405 10.7704 54.7646 -4.38123
361 1 10.9337 13.6749 2.08174 -4.70331
362 1 13.4853 10.4082 1.07817 -4.25089
363 1 13.0535 13.2569 54.1515 -4.25235
364 1 12.106 12.2971 0.396668 -4.82785
365 1 12.1296 14.5843 4.02696 -4.17535
366 1 14.4653 11.3259 3.9351 -4.37615
367 1 13.9991 13.6677 0.594329 -4.28731
368 1 16.5012 10.7317 54.6444 -4.34363
369 1 15.0995 11.8366 1.76641 -4.68729
370 1 16.936 10.4086 1.20581 -4.081
371 1 -14.3808 15.876 1.98041 -4.14857
372 1 -13.1778 16.5352 4.15699 -4.05114
373 1 -9.6677 16.8 54.9169 -4.36769
374 1 -7.99606 15.7249 2.17877 -4.6465
375 1 -8.13342 18.5734 -0.457065 -4.15456
376 1 -9.24175 17.5053 1.40648 -4.38286
377 1 -6.82478 16.7651 3.91427 -4.67232
378 1 -7.63778 19.0932 1.91529 -4.27425
379 1 -5.09601 16.0897 55.2461 -4.59189
380 1 -5.49382 18.0855 2.45126 -4.63121
381 1 -2.68346 16.0023 2.01333 -4.5772
382 1 -2.28189 18.7196 -0.788006 -4.56212
383 1 -3.90287 17.5183 0.806142 -4.37112
384 1 -4.57675 19.3447 4.16216 -3.72042
385 1 -1.44406 17.1384 3.65206 -4.43887
386 1 -0.651746 19.713 0.44 -3.68424
387 1 0.197689 15.7988 55.1319 -4.5561
388 1 0.019046 18.4209 2.27072 -4.73347
389 1 2.82184 15.9742 2.27477 -4.58358
390 1 2.77962 18.7108 0.110874 -4.40464
391 1 1.40358 17.1404 0.903021 -4.62681
392 1 1.301 19.6996 3.80453 -4.60236
393 1 3.93749 17.4118 3.77517 -4.65642
394 1 2.80828 20.0634 2.05578 -4.33774
395 1 5.35179 16.1197 54.7828 -4.55592
396 1 5.05589 19.239 2.63166 -4.13584
397 1 8.3261 17.0107 1.20715 -4.48649
398 1 9.64757 18.4688 -0.0166645 -4.29363
399 1 6.21791 17.8785 0.362135 -4.14572
400 1 5.85466 20.1431 4.61241 -3.7261
401 1 8.42927 16.8279 3.56778 -4.54137
402 1 10.5435 15.6065 54.146 -4.26679
403 1 12.6641 15.26 1.80526 -4.26221
404 1 11.4287 16.7755 0.271646 -4.22146
405 1 1.35608 20.7037 0.209522 -4.36561
406 1 -12.7167 -16.7172 4.53489 -4.15034
407 1 -7.78345 -18.6613 4.83754 -3.57175
408 1 -9.54528 -17.5892 9.24606 -3.66188
409 1 -6.12359 -19.8775 9.89277 -3.83153
410 1 -6.53016 -17.5908 6.43253 -4.51981
411 1 -5.21957 -19.1073 7.9131 -4.66694
412 1 -2.63609 -18.9822 5.43356 -4.50995
413 1 -3.14609 -20.2438 7.46671 -3.51772
414 1 -4.06256 -17.5676 9.16498 -4.63772
415 1 -1.36231 -20.3277 9.05715 -4.55474
416 1 -1.10546 -17.5961 6.51984 -4.64693
417 1 1.13703 -21.121 3.23749 -4.05287
418 1 0.297295 -19.1869 7.65149 -4.4257
419 1 2.83375 -18.4477 4.62707 -4.58162
420 1 1.38954 -19.9942 5.50569 -4.27792
421 1 1.51293 -17.4066 8.78512 -4.5399
422 1 5.21409 -19.5491 9.50941 -4.02323
423 1 4.20304 -17.4626 6.30531 -4.47125
424 1 5.94198 -18.5579 7.4447 -4.63233
425 1 8.56732 -18.0655 4.15332 -4.45971
426 1 8.0162 -19.0241 6.26107 -3.47473
427 1 6.85925 -16.8574 8.71459 -4.67211
428 1 9.74534 -17.3955 6.15886 -4.4692
429 1 13.3136 -16.2613 9.81516 -4.17997
430 1 -17.3665 -10.9878 6.72971 -3.66815
431 1 -15.8084 -12.7649 7.02978 -3.79772
432 1 -13.0174 -15.4115 6.4989 -4.17481
433 1 -13.0397 -13.542 4.95785 -4.70359
434 1 -15.2143 -14.6817 5.80613 -4.34493
435 1 -14.547 -12.2057 8.9304 -4.67817
436 1 -11.9465 -14.7672 8.70968 -4.43382
437 1 -12.0662 -12.2081 6.65952 -4.44976
438 1 -10.3726 -16.5189 4.76425 -4.20503
439 1 -10.3728 -13.4012 7.70896 -4.59067
440 1 -8.26193 -16.4365 7.64528 -4.65568
441 1 -7.9013 -13.4218 5.14357 -4.61493
442 1 -9.37221 -14.9316 6.23884 -4.4875
443 1 -9.26329 -12.0915 9.2965 -4.54479
444 1 -6.80677 -14.9695 8.84339 -4.55505
445 1 -6.73402 -11.9526 6.53392 -4.63395
446 1 -5.31784 -16.163 4.92169 -4.62613
447 1 -5.36948 -13.4632 7.77814 -4.59704
448 1 -2.55513 -16.3173 7.74646 -4.56694
449 1 -2.59898 -13.482 5.16223 -4.50724
450 1 -4.01843 -14.9393 6.37276 -4.62538
451 1 -4.02895 -12.2951 9.32416 -4.58453
452 1 -1.33366 -14.7409 8.96994 -4.6382
453 1 -1.57252 -12.0565 6.52257 -4.52843
454 1 0.128942 -16.3957 4.82122 -4.56631
455 1 -0.0650767 -13.326 7.65585 -4.5664
456 1 2.89529 -15.9794 7.59411 -4.59348
457 1 2.49499 -13.3302 5.14008 -4.60708
458 1 1.22017 -14.8018 6.31734 -4.57103
459 1 1.27562 -11.9456 8.93291 -4.60208
460 1 4.03087 -14.4575 9.16331 -4.6163
461 1 3.82989 -11.8257 6.47764 -4.60674
462 1 5.33132 -16.0333 4.9592 -4.60232
463 1 5.35618 -13.1021 7.78675 -4.63677
464 1 8.43614 -15.7784 7.30546 -4.59955
465 1 7.92086 -13.2086 4.9813 -4.61529
466 1 6.59433 -14.5715 6.37151 -4.57459
467 1 6.71047 -11.7552 9.126 -4.61984
468 1 9.57338 -14.5185 8.86586 -4.5385
469 1 9.46793 -11.9964 6.49211 -4.59282
470 1 10.9622 -15.9187 4.70038 -4.43625
471 1 11.0189 -13.2399 7.6365 -4.55932
472 1 13.9338 -15.3994 7.66602 -4.12792
473 1 13.751 -13.0606 4.58785 -4.49284
474 1 12.3863 -14.4432 6.068 -4.468
475 1 12.0376 -11.8476 9.1973 -4.44529
476 1 14.3302 -14.0448 9.62764 -4.70334
477 1 14.9762 -11.9457 6.3228 -4.49678
478 1 15.7632 -13.8419 7.6171 -4.13208
479 1 16.4423 -12.9167 9.82171 -4.09748
480 1 -18.564 -7.29579 4.99206 -3.84302
481 1 -19.5031 -6.24937 10.0114 -3.5019
482 1 -17.7041 -9.8822 8.91487 -4.54035
483 1 -17.3915 -6.42922 6.84239 -4.64249
484 1 -16.0072 -10.4676 4.97802 -4.57893
485 1 -16.2578 -8.26739 7.78573 -4.56901
486 1 -13.4076 -10.6065 7.7486 -4.59915
487 1 -13.2837 -7.92531 4.9237 -4.64286
488 1 -14.7048 -9.19647 6.31477 -4.60094
489 1 -14.9825 -6.95704 9.18755 -4.57044
490 1 -12.1116 -9.31764 9.16566 -4.57438
491 1 -11.9793 -6.6583 6.4105 -4.60666
492 1 -10.8701 -10.8598 5.22533 -4.55383
493 1 -10.7152 -8.15019 7.67156 -4.6297
494 1 -8.05221 -10.5713 7.94326 -4.61666
495 1 -8.13022 -8.1017 4.90849 -4.58602
496 1 -9.31938 -9.53479 6.28129 -4.55652
497 1 -9.45813 -6.71383 9.18316 -4.59562
498 1 -6.50223 -9.3581 9.19047 -4.55809
499 1 -6.58227 -6.72658 6.15908 -4.57903
500 1 -5.36715 -10.8497 4.90042 -4.57022
501 1 -5.28232 -8.15119 7.51699 -4.57325
502 1 -2.75261 -10.6554 8.01214 -4.55967
503 1 -2.5625 -8.17308 5.14713 -4.59794
504 1 -3.919 -9.65737 6.2835 -4.56847
505 1 -4.2809 -6.72063 8.96983 -4.55527
506 1 -1.31166 -9.26832 9.21146 -4.59193
507 1 -1.30881 -6.57647 6.28865 -4.57824
508 1 -0.210729 -10.7706 5.07443 -4.59274
509 1 0.0299683 -7.87909 7.7999 -4.60709
510 1 2.59553 -10.3932 7.76255 -4.59506
511 1 2.56692 -7.80764 5.12784 -4.58075
512 1 1.17732 -9.29753 6.24383 -4.59323
513 1 1.33016 -6.64779 9.27183 -4.57708
514 1 4.14477 -9.2608 9.14999 -4.60735
515 1 3.95651 -6.52901 6.4326 -4.60956
516 1 5.42338 -10.7147 5.13051 -4.58323
517 1 5.44986 -7.79161 7.84204 -4.57845
518 1 8.11064 -10.5622 7.74227 -4.61021
519 1 8.02821 -7.98475 5.08034 -4.60745
520 1 6.65296 -9.30037 6.46696 -4.59074
521 1 6.61992 -6.38605 9.17309 -4.5824
522 1 9.51849 -9.11837 8.9612 -4.60924
523 1 9.35837 -6.43386 6.17701 -4.55825
524 1 10.678 -10.496 5.16196 -4.63415
525 1 10.743 -7.64876 7.56401 -4.56232
526 1 13.6281 -10.7014 7.77948 -4.49148
527 1 13.3634 -7.83246 5.29641 -4.5713
528 1 12.1179 -9.31706 6.60364 -4.59193
529 1 12.2307 -6.43247 9.01101 -4.61872
530 1 14.8999 -9.00354 9.07084 -4.55319
531 1 14.8606 -6.32236 6.25757 -4.5892
532 1 16.2403 -10.7125 4.70299 -4.52252
533 1 16.2737 -7.65566 7.59127 -4.60675
534 1 18.6151 -7.3742 5.05167 -3.94862
535 1 17.3084 -9.00096 5.97071 -3.7407
536 1 17.7835 -6.24297 9.10888 -4.6348
537 1 19.4289 -5.46771 6.09714 -3.64973
538 1 -18.901 -5.00729 8.10112 -4.59361
539 1 -18.4093 -2.36689 5.15275 -4.58202
540 1 -19.8126 -3.80678 6.33483 -4.44835
541 1 -20.8356 -1.74115 7.12962 -3.72077
542 1 -17.3905 -3.84254 9.44673 -4.64112
543 1 -17.214 -1.08993 6.68722 -4.5535
544 1 -16.1024 -5.36739 5.10956 -4.44443
545 1 -15.9731 -2.59295 7.90658 -4.57525
546 1 -13.5472 -5.44957 7.80466 -4.55303
547 1 -13.4527 -2.50096 5.00067 -4.5928
548 1 -14.7071 -3.95271 6.37137 -4.61963
549 1 -14.5633 -1.35728 9.28297 -4.63466
550 1 -12.3266 -3.94826 9.1957 -4.59984
551 1 -12.042 -1.29124 6.50173 -4.59539
552 1 -10.8229 -5.3405 4.87721 -4.61386
553 1 -10.8166 -2.75241 7.91052 -4.5794
554 1 -8.02164 -5.54972 7.60718 -4.60027
555 1 -8.11996 -2.91284 4.83289 -4.58969
556 1 -9.44288 -4.11214 6.43765 -4.59681
557 1 -9.22451 -1.53232 9.18679 -4.61445
558 1 -6.66016 -4.19682 8.9645 -4.61145
559 1 -6.68138 -1.54607 6.0319 -4.61206
560 1 -5.33433 -5.4825 4.69811 -4.6032
561 1 -5.37824 -2.8213 7.46731 -4.5894
562 1 -2.82573 -5.47853 7.69659 -4.58969
563 1 -2.81479 -2.679 4.88692 -4.572
564 1 -4.00783 -4.2068 6.11012 -4.60427
565 1 -4.04504 -1.46662 8.87444 -4.61017
566 1 -1.42414 -4.1305 9.03664 -4.59729
567 1 -1.35155 -1.24955 6.14439 -4.61199
568 1 -0.202945 -5.06995 4.82509 -4.61081
569 1 -0.151881 -2.64168 7.6616 -4.63419
570 1 2.37679 -5.27053 7.64415 -4.57238
571 1 2.4933 -2.3763 4.79444 -4.55405
572 1 1.25272 -3.7868 6.09626 -4.58131
573 1 1.22189 -1.2723 8.9871 -4.53557
574 1 3.74382 -4.00872 8.94712 -4.56602
575 1 4.05389 -1.24653 6.09359 -4.58886
576 1 5.25289 -5.30143 4.78348 -4.5814
577 1 5.23886 -2.5852 7.55667 -4.56184
578 1 7.95076 -5.09346 7.73626 -4.57156
579 1 7.99182 -2.46669 4.94235 -4.59774
580 1 6.55924 -3.9575 6.28318 -4.60127
581 1 6.70184 -1.26753 9.03074 -4.56763
582 1 9.3915 -3.77902 9.11424 -4.60938
583 1 9.32507 -1.08294 6.26975 -4.60267
584 1 10.6985 -5.13894 4.73906 -4.62812
585 1 10.6304 -2.5242 7.54636 -4.59896
586 1 13.5597 -4.93693 7.6704 -4.58911
587 1 13.4157 -2.5959 4.77764 -4.63018
588 1 12.045 -3.8442 6.15403 -4.61448
589 1 11.9889 -1.21024 8.98133 -4.57727
590 1 14.9454 -3.54691 9.16272 -4.52881
591 1 14.6378 -1.22217 6.20929 -4.504
592 1 16.4723 -5.21409 4.85071 -4.44546
593 1 16.1528 -2.47654 7.56391 -4.34097
594 1 18.8694 -4.42977 8.11255 -3.90215
595 1 18.9479 -2.45022 4.48884 -4.41637
596 1 17.7433 -3.73427 6.13899 -5.01164
597 1 17.5521 -1.20505 8.96457 -4.33351
598 1 20.5419 -2.41647 9.44283 -3.81877
599 1 20.1444 -0.607148 5.43145 -4.35576
600 1 -20.978 0.245327 5.83897 -4.03428
601 1 -18.3864 0.507182 7.83038 -4.64517
602 1 -18.2097 3.01126 5.16473 -4.51792
603 1 -19.7 2.10516 6.75092 -4.5357
604 1 -19.1272 3.9329 8.36085 -4.18557
605 1 -16.8517 1.69234 9.08843 -4.68847
606 1 -17.5013 4.70729 6.6945 -4.98899
607 1 -16.0514 0.209224 5.16512 -4.579
608 1 -15.811 3.13272 7.5695 -4.37168
609 1 -13.4143 0.113528 7.80607 -4.56628
610 1 -13.35 2.64118 4.82919 -4.64352
611 1 -14.5918 1.46135 6.41974 -4.49719
612 1 -14.5497 4.36327 9.13269 -4.65278
613 1 -11.9255 1.35183 9.00719 -4.59274
614 1 -11.9808 4.08207 6.18438 -4.56543
615 1 -10.7704 0.167829 4.94721 -4.55986
616 1 -10.5584 2.66724 7.52925 -4.61155
617 1 -7.96132 -0.30384 7.56894 -4.57176
618 1 -7.95327 2.69666 4.79118 -4.58189
619 1 -9.13426 1.23558 6.26548 -4.59933
620 1 -9.27872 3.93412 8.97155 -4.59431
621 1 -6.65262 1.02029 8.92653 -4.60662
622 1 -6.56418 4.04188 6.20159 -4.60733
623 1 -5.48674 0.0728359 4.85752 -4.56906
624 1 -5.38311 2.61776 7.75956 -4.6
625 1 -2.60952 -0.0319298 7.63894 -4.64923
626 1 -2.55587 2.74481 5.05073 -4.60374
627 1 -4.02486 1.34147 6.34866 -4.61035
628 1 -4.22284 4.0516 9.10259 -4.55438
629 1 -1.30933 1.24228 9.0896 -4.56651
630 1 -1.20065 4.06046 6.42899 -4.56975
631 1 -0.0707881 0.377476 4.97893 -4.58867
632 1 0.0295369 2.54309 7.78418 -4.54334
633 1 2.5824 -0.118143 7.57146 -4.57878
634 1 2.93045 2.81504 5.01225 -4.58161
635 1 1.39578 1.51467 6.34502 -4.53432
636 1 1.11703 4.0402 9.10504 -4.50581
637 1 3.89877 1.23229 8.88288 -4.55657
638 1 4.06988 4.4506 6.40085 -4.54186
639 1 5.50748 0.296399 4.87064 -4.58532
640 1 5.0951 2.86192 7.76846 -4.57156
641 1 7.86172 0.113259 7.60938 -4.5935
642 1 8.07732 2.9274 4.9711 -4.56206
643 1 6.65266 1.69676 6.33994 -4.59575
644 1 6.66439 4.12882 9.09886 -4.61523
645 1 9.15001 1.4375 9.0722 -4.60656
646 1 9.2985 4.37602 6.27914 -4.56145
647 1 10.5378 0.173971 4.7025 -4.57078
648 1 10.3691 2.91028 7.72053 -4.59974
649 1 13.0507 0.0645389 7.44672 -4.55168
650 1 12.9575 2.82113 4.97317 -4.60065
651 1 11.5931 1.46899 6.2513 -4.56485
652 1 11.7897 3.94392 9.21921 -4.54453
653 1 14.4011 1.22512 8.95519 -4.58006
654 1 14.5118 4.10604 6.21724 -4.56681
655 1 15.5728 0.0626228 4.71515 -4.53448
656 1 15.7405 2.67775 7.56466 -4.3842
657 1 18.4415 -0.253509 7.00677 -4.57576
658 1 18.2131 2.15663 4.49404 -4.57212
659 1 16.9258 1.28591 6.18865 -4.59702
660 1 17.2495 3.93515 9.0251 -4.90363
661 1 20.0714 1.2534 8.05031 -4.56479
662 1 19.7555 3.67107 5.55768 -4.52125
663 1 21.0335 1.57362 5.96409 -4.16642
664 1 -19.4781 6.26282 8.73132 -4.41461
665 1 -18.1335 8.1684 5.19237 -3.55136
666 1 -19.2236 6.38189 6.25824 -4.37485
667 1 -17.2822 6.96332 8.92913 -4.70649
668 1 -17.3403 10.1645 6.42302 -4.57227
669 1 -16.0702 5.30347 4.78461 -4.3582
670 1 -16.0239 8.46502 7.55147 -4.56095
671 1 -13.3196 5.57437 7.52907 -4.58651
672 1 -13.5717 8.08702 4.75589 -4.58578
673 1 -14.8427 6.79758 6.28508 -4.55927
674 1 -14.5835 9.5335 9.10795 -4.62318
675 1 -11.8876 6.74284 9.08947 -4.57634
676 1 -11.8001 9.20523 5.98466 -4.57737
677 1 -10.8352 5.3698 4.72231 -4.56129
678 1 -10.4473 7.98107 7.54297 -4.59765
679 1 -7.85788 5.30723 7.64236 -4.58315
680 1 -7.97539 7.80044 4.80958 -4.59157
681 1 -9.28664 6.45985 6.19492 -4.6277
682 1 -9.27272 9.40237 9.06518 -4.5821
683 1 -6.68169 6.72773 8.99513 -4.58827
684 1 -6.56651 9.20095 6.24392 -4.57235
685 1 -5.06363 5.37022 5.08958 -4.54237
686 1 -5.25022 8.06912 7.76971 -4.59913
687 1 -2.58958 5.2486 7.8315 -4.60998
688 1 -2.67765 8.0948 4.9957 -4.6068
689 1 -3.84683 6.73756 6.45524 -4.59233
690 1 -4.04605 9.49155 9.21707 -4.62034
691 1 -1.43606 6.92444 9.08954 -4.53738
692 1 -1.20847 9.41651 6.35009 -4.60762
693 1 0.121999 5.32953 4.96516 -4.62324
694 1 -0.0315987 7.89591 7.54441 -4.55039
695 1 2.40059 5.53171 7.76821 -4.55905
696 1 2.76012 8.28079 4.58245 -4.59192
697 1 1.56865 6.8507 6.03746 -4.5461
698 1 1.1823 9.32696 8.97698 -4.58959
699 1 3.9844 6.79031 8.91267 -4.57838
700 1 4.15882 9.50379 6.13094 -4.59331
701 1 5.26717 5.5191 4.76626 -4.56663
702 1 5.34122 8.01626 7.52161 -4.58442
703 1 7.85458 5.62546 7.65382 -4.60053
704 1 8.1906 8.33285 4.67882 -4.60558
705 1 6.76518 6.87199 6.03218 -4.5908
706 1 6.72915 9.39252 8.96793 -4.56988
707 1 9.2245 7.01216 8.87131 -4.55333
708 1 9.56231 9.71656 6.02733 -4.57897
709 1 10.6454 5.55667 4.75531 -4.61796
710 1 10.8041 8.20502 7.40468 -4.57069
711 1 12.9258 5.19326 7.50047 -4.56095
712 1 13.6288 8.26389 4.68728 -4.26039
713 1 12.1943 6.88855 5.95832 -4.55679
714 1 11.8301 9.68685 9.00192 -4.40829
715 1 14.2397 6.46524 9.03925 -4.59468
716 1 15.0072 9.27483 6.43365 -4.88743
717 1 15.899 5.25941 4.62689 -4.21723
718 1 15.9079 7.57424 7.89894 -4.25358
719 1 18.0442 4.74282 6.88745 -4.12701
720 1 19.4105 7.24467 4.91721 -4.07709
721 1 17.1854 6.74939 5.99173 -5.30469
722 1 17.2678 9.06743 9.08934 -4.25304
723 1 19.4419 6.67996 7.19603 -4.06988
724 1 -16.9923 11.8896 8.06818 -3.55661
725 1 -15.8902 11.1578 4.66061 -4.5421
726 1 -15.6973 13.6371 6.83692 -4.47802
727 1 -12.9257 10.4215 7.63481 -4.51547
728 1 -12.8054 13.0798 5.43303 -4.14963
729 1 -14.3977 11.726 6.44323 -4.67842
730 1 -14.0269 14.8063 7.92187 -4.06512
731 1 -11.7604 12.0858 8.72126 -4.63473
732 1 -11.9105 15.044 6.63971 -5.37211
733 1 -10.4538 10.6358 4.7175 -4.57072
734 1 -10.3665 13.4835 7.49212 -4.34852
735 1 -7.75524 10.684 7.75648 -4.57988
736 1 -7.85341 13.3237 4.93975 -4.59653
737 1 -9.12297 11.9205 6.24941 -4.58169
738 1 -9.40339 14.9425 9.09373 -4.66758
739 1 -6.60107 12.1236 9.09385 -4.56547
740 1 -6.61825 14.6287 6.49631 -4.61232
741 1 -5.41594 10.7032 4.89611 -4.59675
742 1 -5.10427 13.4155 7.79303 -4.60627
743 1 -2.53045 10.5994 7.88989 -4.56942
744 1 -2.65794 13.2885 5.09014 -4.58719
745 1 -3.91641 11.8443 6.37369 -4.573
746 1 -4.00132 14.954 9.13996 -4.59865
747 1 -1.36924 11.996 9.34049 -4.60128