ITEM: TIMESTEP
354000
ITEM: NUMBER OF ATOMS
4050
ITEM: BOX BOUNDS ss ss pp
-2.0444569407937610e+01 2.0525612425082308e+01
-2.0246374403624337e+01 2.0225036630996097e+01
-4.8064350000000005e+00 5.9116435000000003e+01
ITEM: ATOMS id type x y z c_peratom
1 1 -11.2728 -14.7866 -2.22464 -4.07812
2 1 -7.59252 -17.431 -4.61795 -4.30901
3 1 -8.60809 -16.5006 -0.713212 -4.57469
4 1 -6.79604 -17.9749 -0.965095 -3.65484
5 1 -6.0753 -16.0068 -3.63296 -4.67146
6 1 -4.88823 -17.5078 -2.2815 -4.63796
7 1 -2.08396 -17.7291 58.6058 -4.6412
8 1 -4.25026 -18.2872 -4.50911 -3.5606
9 1 -3.62469 -16.1622 -0.699273 -4.34329
10 1 -0.632545 -18.8358 -0.352273 -4.26683
11 1 -1.36739 -15.9232 -3.87116 -4.44943
12 1 0.42264 -18.728 -3.56606 -3.99209
13 1 -0.433521 -17.2349 -1.98709 -4.5514
14 1 3.12799 -17.6769 -4.86233 -4.54247
15 1 2.69305 -19.4683 -3.44168 -4.28563
16 1 1.10024 -16.1368 -0.575205 -4.58612
17 1 3.24298 -18.6862 -1.09446 -4.15561
18 1 3.65791 -16.2041 -3.19326 -4.59956
19 1 5.14972 -17.5946 -2.22154 -4.44413
20 1 6.79946 -17.6303 -3.98536 -4.27551
21 1 8.94372 -16.5996 -1.14833 -4.27854
22 1 5.81493 -16.1774 -0.382805 -4.44787
23 1 8.5193 -16.1473 -3.39723 -4.14442
24 1 10.4937 -15.0323 -0.396858 -4.5958
25 1 -14.4691 -12.6497 -2.85035 -4.14987
26 1 -14.891 -13.6973 -0.642353 -4.27482
27 1 -13.0601 -15.2891 -0.578835 -4.28173
28 1 -12.5721 -13.628 57.8206 -4.4661
29 1 -12.4875 -13.4728 -3.71223 -4.57586
30 1 -13.9107 -11.4958 -0.765209 -4.22651
31 1 -11.4286 -13.5383 -0.183581 -5.10289
32 1 -11.1339 -11.6019 -3.38784 -4.47818
33 1 -9.24236 -15.7271 58.8322 -4.13303
34 1 -9.79833 -12.8529 -1.99889 -4.66162
35 1 -7.29915 -14.9082 -1.82418 -4.56473
36 1 -6.87853 -12.5072 59.1839 -4.49201
37 1 -8.45632 -13.8482 -3.64262 -4.3451
38 1 -8.80643 -11.3069 -0.262824 -4.33538
39 1 -5.87906 -13.6088 -0.40512 -4.51848
40 1 -5.83017 -10.9843 -3.307 -4.45682
41 1 -4.54766 -14.9469 58.8834 -4.50023
42 1 -4.57834 -12.2939 -1.82566 -4.53818
43 1 -2.36226 -14.6938 -1.95305 -4.45059
44 1 -2.06194 -12.2373 58.7571 -4.54432
45 1 -3.43413 -13.4302 -3.66379 -4.49999
46 1 -3.46762 -10.9357 -0.242374 -4.46827
47 1 -1.06113 -13.5766 -0.33866 -4.45761
48 1 -1.06918 -10.8679 -3.53527 -4.52169
49 1 0.449396 -14.868 58.9645 -4.61876
50 1 0.00551558 -12.2825 -1.938 -4.50552
51 1 2.46818 -14.6928 -1.69875 -4.48799
52 1 2.86857 -12.4172 58.814 -4.44607
53 1 1.53184 -13.4349 -3.39305 -4.49018
54 1 1.2646 -11.0016 -0.412172 -4.5702
55 1 3.96642 -13.638 -0.171891 -4.50532
56 1 3.814 -11.0502 -3.44164 -4.49361
57 1 4.83794 -14.9535 -4.74342 -4.6012
58 1 5.12163 -12.2995 -1.88403 -4.40625
59 1 7.25667 -14.8868 -1.74314 -5.00761
60 1 7.85511 -12.638 58.8305 -4.28974
61 1 6.27149 -13.639 -3.49925 -4.36954
62 1 6.09646 -11.2448 0.0713557 -4.50006
63 1 8.72663 -13.4802 -0.416865 -4.45578
64 1 8.55993 -11.016 -3.16536 -4.46279
65 1 10.1381 -15.4026 -5.16817 -4.14388
66 1 10.0463 -12.0586 -1.71273 -4.32519
67 1 12.1502 -14.4862 -2.02779 -4.23975
68 1 11.7592 -11.7617 -4.48272 -4.38813
69 1 10.4658 -13.6068 -3.54519 -4.92107
70 1 11.0272 -11.0143 0.328726 -4.50505
71 1 13.6136 -12.9256 -0.956332 -3.93846
72 1 13.8031 -10.7836 -2.0823 -4.90532
73 1 15.5423 -12.3391 -2.6804 -3.97726
74 1 16.0438 -10.365 -1.16709 -4.12582
75 1 -17.2508 -7.83003 58.4957 -4.14663
76 1 -18.4586 -5.62987 0.768336 -4.24037
77 1 -15.9706 -8.56069 0.141475 -3.64038
78 1 -16.3454 -6.37219 -3.18676 -4.12044
79 1 -14.6403 -10.5444 -4.41777 -4.16858
80 1 -14.8583 -7.51887 -1.73178 -4.56607
81 1 -12.1188 -10.3276 -1.67662 -4.51314
82 1 -12.108 -7.64117 -4.53656 -4.5215
83 1 -13.5251 -9.02617 -3.1247 -4.62475
84 1 -13.5832 -6.43954 -0.170831 -4.38172
85 1 -11.1216 -8.63561 -0.101273 -4.48348
86 1 -11.1812 -5.97252 -3.05502 -4.60235
87 1 -9.60839 -10.3608 -4.73413 -4.42558
88 1 -9.88224 -7.33292 -1.5648 -4.5409
89 1 -7.40639 -9.97111 -1.65489 -4.54642
90 1 -7.45482 -7.51679 -4.85224 -4.50195
91 1 -8.85578 -8.61736 -3.18773 -4.43319
92 1 -8.70632 -5.92621 0.0290244 -4.50258
93 1 -6.39064 -8.45037 -0.241411 -4.42426
94 1 -6.18441 -6.13277 -3.26623 -4.54321
95 1 -4.73331 -9.94512 58.8086 -4.49334
96 1 -4.91367 -7.40466 -1.78629 -4.37733
97 1 -2.4255 -9.63393 -1.96086 -4.45855
98 1 -2.2475 -7.34454 58.8538 -4.51454
99 1 -3.65223 -8.53645 -3.72698 -4.37927
100 1 -3.88514 -6.00958 -0.0340621 -4.50176
101 1 -1.22154 -8.37657 -0.468054 -4.46241
102 1 -1.23764 -5.93743 -3.41495 -4.49834
103 1 0.305531 -9.5932 -5.07032 -4.5465
104 1 0.16962 -7.08795 -2.00836 -4.44216
105 1 2.56454 -9.75331 -1.90973 -4.46182
106 1 3.02908 -7.3409 58.9564 -4.4808
107 1 1.56694 -8.32744 -3.49029 -4.52793
108 1 1.21826 -6.25505 -0.0214205 -4.46498
109 1 3.70951 -8.72706 -0.0571689 -4.4658
110 1 3.89366 -5.95512 -3.1319 -4.48294
111 1 5.21963 -9.99372 58.9471 -4.40862
112 1 5.04508 -7.24423 -1.45325 -4.49579
113 1 7.41256 -9.82675 -1.42935 -4.43737
114 1 7.45013 -7.2201 -4.62306 -4.49744
115 1 6.27232 -8.68568 -3.08565 -4.39538
116 1 5.96365 -5.75891 0.118117 -4.49096
117 1 8.41362 -8.42144 0.262112 -4.55332
118 1 8.77528 -6.21046 -2.89547 -4.42829
119 1 10.1927 -9.83122 -4.33332 -4.37937
120 1 9.96467 -7.27125 -1.10735 -4.55067
121 1 12.4276 -9.45952 -0.721531 -4.40395
122 1 12.2664 -7.29714 -4.47092 -4.4641
123 1 11.2746 -8.56596 -2.70144 -4.40373
124 1 11.1874 -5.79884 0.267682 -4.46908
125 1 13.9341 -8.06724 0.308985 -4.5508
126 1 13.5687 -5.97303 -3.18394 -4.6319
127 1 14.4003 -9.6619 -4.09338 -4.48981
128 1 14.8417 -7.26709 -1.74198 -4.61464
129 1 16.5961 -6.49517 -4.64192 -4.33199
130 1 16.1713 -8.68902 -2.99349 -4.24276
131 1 15.97 -5.39642 -0.918049 -4.58233
132 1 18.2197 -4.82151 -4.57942 -3.85008
133 1 -17.8525 -5.20676 -1.67989 -4.12718
134 1 -17.6268 -2.35893 -4.38685 -4.90899
135 1 -18.6283 -3.01816 -2.30962 -4.18889
136 1 -17.49 -1.97297 -0.55943 -4.60645
137 1 -16.3 -4.82889 0.153213 -4.32979
138 1 -16.1438 -0.776377 -3.27548 -4.5881
139 1 -14.6598 -5.09026 -4.40593 -4.64591
140 1 -15.3116 -2.2179 -1.57993 -4.44423
141 1 -12.6124 -4.68657 -1.52662 -4.53752
142 1 -12.2882 -2.32481 -4.79824 -4.47018
143 1 -13.7382 -3.27834 -3.12166 -4.43084
144 1 -13.8446 -1.22784 0.0699317 -4.49719
145 1 -11.1889 -3.56786 0.0991812 -4.52111
146 1 -11.1857 -1.13622 -3.10852 -4.39965
147 1 -9.75063 -4.69572 -4.49733 -4.4687
148 1 -10.0468 -2.11408 -1.26766 -4.4695
149 1 -7.48822 -4.77886 -1.6496 -4.49179
150 1 -7.46634 -2.06063 -4.54688 -4.41145
151 1 -8.7903 -3.22369 -2.92744 -4.54573
152 1 -8.64355 -0.778252 0.103059 -4.51382
153 1 -6.31071 -3.51137 0.0809853 -4.47733
154 1 -5.96191 -0.797995 -3.07202 -4.39982
155 1 -4.98772 -4.75048 59.0694 -4.51938
156 1 -5.05984 -2.32255 -1.53632 -4.45031
157 1 -2.45457 -4.80172 -1.55857 -4.44343
158 1 -2.24244 -2.29485 59.3034 -4.47033
159 1 -3.68355 -3.48547 -3.20722 -4.49828
160 1 -3.79403 -1.08147 0.174329 -4.53982
161 1 -1.02298 -3.6625 -0.00595231 -4.53274
162 1 -1.14934 -0.829709 -2.95434 -4.47117
163 1 0.273066 -4.72562 59.1235 -4.51329
164 1 0.191045 -2.19796 -1.4596 -4.57264
165 1 2.55193 -4.88279 -1.40871 -4.50175
166 1 2.68634 -1.98577 59.3519 -4.45337
167 1 1.50051 -3.49311 -3.04508 -4.50119
168 1 1.33173 -0.786236 0.0408034 -4.5121
169 1 3.66592 -3.42534 0.120792 -4.47574
170 1 4.03251 -0.959438 -2.85694 -4.49108
171 1 5.22771 -4.68202 59.3171 -4.46998
172 1 5.08741 -2.32605 -1.32917 -4.44989
173 1 7.49414 -4.65332 -1.34992 -4.47732
174 1 7.73342 -2.13591 59.4064 -4.48023
175 1 6.35917 -3.35063 -3.00771 -4.50044
176 1 6.22344 -1.06558 0.394558 -4.45907
177 1 8.54772 -3.37325 0.276622 -4.49387
178 1 8.82679 -0.937232 -2.75034 -4.46301
179 1 9.94959 -4.84611 -4.46599 -4.46806
180 1 10.0863 -2.22042 -1.10115 -4.44971
181 1 12.2023 -4.8673 -1.61153 -4.45208
182 1 12.2826 -2.20206 -4.61581 -4.42574
183 1 10.9971 -3.44214 -2.92917 -4.42019
184 1 11.2929 -0.918518 0.599236 -4.40965
185 1 14.0395 -4.09639 -0.425237 -4.48426
186 1 13.0342 -0.911908 -2.71167 -4.45291
187 1 14.9966 -4.86229 -4.66623 -4.53996
188 1 14.7198 -2.09674 -1.43602 -4.51201
189 1 17.291 -4.00606 -2.42329 -4.53335
190 1 17.1713 -1.84492 59.0587 -4.62403
191 1 15.609 -2.9014 -3.44855 -4.66102
192 1 16.0411 -0.993826 0.301504 -4.31237
193 1 18.5625 -2.10657 -1.45485 -3.96546
194 1 18.3194 -0.467763 -3.42615 -3.91431
195 1 -19.3978 -0.857837 -3.41092 -4.29923
196 1 -17.956 0.309532 -0.255283 -4.35351
197 1 -17.5745 2.39005 -4.26504 -4.19984
198 1 -17.8411 0.712322 -2.53462 -4.4546
199 1 -17.5888 4.61958 1.43351 -4.35726
200 1 -16.042 1.55391 0.277075 -4.51739
201 1 -16.3941 3.91218 -2.67128 -4.2348
202 1 -14.7292 0.147074 58.9688 -4.47648
203 1 -14.8576 2.59258 -1.57936 -4.57202
204 1 -12.4295 0.00192307 -1.43875 -4.43732
205 1 -12.6739 2.65499 -4.61708 -4.5465
206 1 -13.5614 1.14261 -2.99891 -4.36676
207 1 -13.5658 3.99997 -0.297649 -4.29257
208 1 -11.4345 1.51695 0.123686 -4.44701
209 1 -11.2837 4.13763 -3.33237 -4.57013
210 1 -10.0814 0.223805 -4.72929 -4.54155
211 1 -10.347 2.71015 -1.7757 -4.38576
212 1 -7.55259 0.504696 -1.55841 -4.39839
213 1 -7.59256 2.63896 59.02 -4.51428
214 1 -8.86418 1.58884 -3.16453 -4.49499
215 1 -8.9044 3.81563 -0.0380197 -4.40879
216 1 -6.28176 1.63278 0.212354 -4.42574
217 1 -6.42223 3.90446 -3.2975 -4.45714
218 1 -4.85696 0.298229 -5.01154 -4.448
219 1 -5.09901 2.67137 -1.73948 -4.4546
220 1 -2.60942 0.239364 -1.37405 -4.47881
221 1 -2.56461 2.80139 -4.87266 -4.45747
222 1 -3.67378 1.35262 -3.23702 -4.41182
223 1 -3.73906 3.90044 -0.199556 -4.49307
224 1 -1.29618 1.59368 -0.0246488 -4.54491
225 1 -1.11117 3.80915 -3.33327 -4.51824
226 1 0.0977705 0.313601 -4.66512 -4.46946
227 1 0.169456 2.73859 -1.6298 -4.48397
228 1 2.78033 0.363272 -1.47439 -4.51953
229 1 2.78794 2.84446 -4.85698 -4.5201
230 1 1.64371 1.61232 -3.19174 -4.47855
231 1 1.26806 4.09919 -0.0211714 -4.51078
232 1 3.8918 1.60241 0.236891 -4.49831
233 1 4.03966 4.08399 -3.15311 -4.43206
234 1 5.31046 0.414781 -4.40962 -4.45304
235 1 5.21075 2.8898 -1.28434 -4.44931
236 1 7.44262 0.286857 -1.1639 -4.51056
237 1 7.69432 3.17048 -4.31091 -4.46512
238 1 6.51088 1.6973 -2.75799 -4.47189
239 1 6.37173 4.16177 0.474894 -4.43023
240 1 8.59363 1.562 0.467599 -4.45253
241 1 8.85543 4.53183 -2.77946 -4.42112
242 1 9.95268 0.500655 -4.3139 -4.47119
243 1 9.73157 2.99124 -1.10001 -4.43376
244 1 12.1713 0.545741 -1.0678 -4.38721
245 1 12.5024 3.35118 -4.03391 -4.8184
246 1 11.0389 1.90722 -2.67582 -4.32798
247 1 11.0658 3.82652 0.721769 -4.46566
248 1 13.4204 1.50672 0.771058 -4.51915
249 1 13.5855 4.2857 -2.06035 -4.52311
250 1 14.4815 0.18334 -4.09763 -4.38194
251 1 14.8119 2.68578 -0.762988 -4.40759
252 1 17.5996 0.0767355 -1.12835 -4.78283
253 1 16.504 2.64572 -4.07863 -4.35395
254 1 15.8045 1.25729 -2.25746 -4.26325
255 1 16.3194 4.16926 0.145269 -4.89888
256 1 18.8242 1.00338 0.834767 -4.16872
257 1 18.1267 4.24698 -4.07147 -4.29963
258 1 18.6226 1.87011 -4.55804 -4.2111
259 1 -17.667 5.15478 -0.996292 -4.08994
260 1 -17.0191 8.20945 58.0891 -4.50791
261 1 -17.6818 6.49338 -4.27934 -3.82683
262 1 -16.8568 7.24779 -0.36078 -4.29598
263 1 -16.4196 9.05109 -3.74336 -3.92898
264 1 -15.6527 5.11844 -4.70321 -5.39239
265 1 -15.3354 7.92677 -1.99373 -4.56173
266 1 -12.646 5.55141 -1.90355 -4.50324
267 1 -12.6992 7.68596 -5.04677 -4.53528
268 1 -14.1285 6.55953 -3.47653 -4.27448
269 1 -13.9973 9.12359 -0.539762 -4.48844
270 1 -11.3169 6.46246 -0.0615582 -4.46876
271 1 -11.3922 8.98526 -3.45324 -4.48655
272 1 -9.94386 5.478 -4.90948 -4.46812
273 1 -10.2735 7.87603 -1.72541 -4.50901
274 1 -7.68771 5.11239 -1.62394 -4.52056
275 1 -7.48675 7.53377 59.0131 -4.45525
276 1 -8.82778 6.58133 -3.09325 -4.45813
277 1 -8.57589 8.72173 -0.247634 -4.43328
278 1 -6.22653 6.38588 -0.191997 -4.54571
279 1 -6.15302 8.7164 -3.29759 -4.52924
280 1 -4.8814 5.09776 -4.9386 -4.40066
281 1 -4.83178 7.64859 -1.7129 -4.46066
282 1 -2.35718 5.12289 -1.75837 -4.55237
283 1 -2.37322 7.67338 -4.90271 -4.4749
284 1 -3.66594 6.43004 -3.30563 -4.52467
285 1 -3.59105 9.03654 -0.0389153 -4.44782
286 1 -1.35952 6.63057 -0.232153 -4.42878
287 1 -1.20173 8.9619 -3.31766 -4.46229
288 1 0.109898 5.35473 -4.7629 -4.49361
289 1 0.166621 7.81929 -1.6516 -4.46907
290 1 2.67003 5.20342 -1.59972 -4.43751
291 1 2.93027 8.05737 -4.56135 -4.28533
292 1 1.55896 6.65968 -3.26678 -4.4966
293 1 1.11572 8.89865 0.232241 -4.46602
294 1 3.62949 6.31863 0.281696 -4.47882
295 1 3.96832 9.16625 -2.49452 -4.54553
296 1 5.35349 5.69373 -4.52326 -4.32082
297 1 5.05157 7.91406 -0.841802 -4.63406
298 1 7.47586 5.48593 -1.09113 -4.52089
299 1 8.57397 8.63307 58.0274 -4.05323
300 1 6.27563 6.92136 -2.52315 -4.50725
301 1 6.42252 9.28325 0.512839 -4.46611
302 1 8.72389 6.66796 0.667768 -4.43572
303 1 8.26608 8.33095 -3.05057 -4.0907
304 1 10.2713 5.98494 -4.29996 -3.87401
305 1 9.73 7.85889 -1.14503 -4.39096
306 1 12.0728 5.38572 -0.667176 -4.58034
307 1 12.3204 7.7068 57.759 -4.57773
308 1 11.4935 6.99418 -2.43547 -4.36909
309 1 11.3118 9.25487 1.64468 -4.49805
310 1 13.5888 6.21687 0.826056 -4.65347
311 1 12.1703 10.0562 58.5046 -4.06171
312 1 14.048 4.84864 58.5564 -4.31419
313 1 14.8593 7.49156 -0.650589 -4.29505
314 1 17.0809 4.93601 -1.91915 -3.71597
315 1 15.5966 6.58638 58.6616 -4.1858
316 1 15.1594 6.05833 -2.56476 -4.37422
317 1 15.8609 8.44388 1.73107 -4.08191
318 1 18.2369 5.28258 0.741433 -3.78981
319 1 -15.2984 13.1275 0.860527 -3.8885
320 1 -14.7633 10.4937 -4.76251 -4.54339
321 1 -14.5363 13.7646 -1.83345 -3.88239
322 1 -12.4846 10.4917 -1.87478 -4.58054
323 1 -12.4477 13.0608 -4.84266 -4.97873
324 1 -13.7651 12.0266 -3.2371 -4.37467
325 1 -13.1297 13.9416 0.0768771 -4.88232
326 1 -10.7365 11.1416 -0.462061 -4.40045
327 1 -10.9981 14.384 -3.3553 -4.18505
328 1 -9.90761 10.1767 -4.9816 -4.6092
329 1 -10.0154 12.6024 -2.17449 -4.47852
330 1 -7.60732 10.0371 -1.94052 -4.50232
331 1 -7.24645 12.608 58.644 -4.53227
332 1 -8.5373 11.4731 -3.5947 -4.52515
333 1 -8.75205 13.9861 -0.81802 -4.46357
334 1 -6.21121 11.2213 -0.615185 -4.55116
335 1 -5.95707 13.9278 -3.98124 -4.52477
336 1 -4.88223 9.87731 58.8984 -4.51868
337 1 -5.04256 12.6353 -2.195 -4.45933
338 1 -2.41471 10.1997 -1.73175 -4.39858
339 1 -2.41475 12.4851 58.7408 -4.561
340 1 -3.55716 11.2428 -3.5968 -4.53111
341 1 -3.52587 13.5127 -0.693341 -4.35154
342 1 -1.22957 11.4804 -0.0516258 -4.40286
343 1 -1.2138 13.8343 -3.62382 -4.55419
344 1 0.144788 10.1154 59.0248 -4.51105
345 1 -0.0972428 12.5935 -1.93559 -4.43861
346 1 2.34894 10.2258 -1.23885 -4.52608
347 1 2.7037 12.5818 58.9825 -4.29991
348 1 1.42859 11.3361 -3.29407 -4.40208
349 1 1.04773 13.7529 -0.246647 -4.38453
350 1 3.48705 11.6187 0.324547 -4.46696
351 1 4.16026 13.7822 -3.31935 -3.99671
352 1 5.95882 11.0006 58.2112 -4.14245
353 1 4.98224 12.5828 -1.43913 -4.05519
354 1 7.42188 10.0157 -1.63936 -4.52559
355 1 7.25709 12.7426 57.3419 -4.96228
356 1 5.61624 10.8722 -2.92395 -4.38762
357 1 5.72012 14.1063 0.934992 -4.08928
358 1 8.49 12.0501 1.4961 -4.59171
359 1 8.72434 14.3639 58.441 -4.39196
360 1 10.1411 10.0642 56.9278 -4.85399
361 1 8.41445 12.0722 -0.824019 -4.34181
362 1 11.2267 9.79286 -0.707975 -4.97806
363 1 11.9895 11.6163 56.6596 -4.51177
364 1 10.5138 11.6671 -1.98319 -4.39751
365 1 10.1766 13.4949 1.66324 -4.56139
366 1 13.1885 10.6733 1.9101 -4.61381
367 1 12.3255 12.7578 -0.920757 -3.64622
368 1 14.1508 10.5145 57.4424 -4.19136
369 1 13.4518 10.6804 -0.44851 -4.37017
370 1 13.0945 8.72884 -1.72779 -4.18946
371 1 -12.6926 15.2757 -1.83517 -4.15658
372 1 -12.1432 16.0475 0.552792 -4.16323
373 1 -9.28549 15.8632 58.1535 -4.36962
374 1 -7.72427 14.9642 -2.69571 -4.50481
375 1 -8.08789 17.9909 58.0845 -4.428
376 1 -8.67605 16.9316 -3.74132 -4.44753
377 1 -6.11365 15.9837 -1.31659 -4.71557
378 1 -6.71835 18.2264 -3.87307 -3.57836
379 1 -4.92753 15.4586 58.5528 -4.47791
380 1 -4.8972 17.6291 -2.37432 -4.57815
381 1 -2.6889 15.1848 -2.16761 -4.42765
382 1 -2.14239 17.885 58.5391 -4.29439
383 1 -3.36968 16.6796 -3.90641 -4.37691
384 1 -4.98924 18.7027 -0.102723 -4.06437
385 1 -1.44125 16.1365 -0.300404 -4.45819
386 1 -0.289054 18.7622 -3.80271 -4.34123
387 1 0.464983 14.9807 -4.84557 -4.30831
388 1 -0.00983285 17.3817 -1.91489 -4.45901
389 1 2.66867 14.7518 -1.77145 -4.27467
390 1 3.21018 17.9604 -3.49584 -4.21029
391 1 1.65963 16.3328 -3.38266 -4.88302
392 1 1.02496 18.9677 -0.448075 -4.57431
393 1 3.27217 16.3443 0.0720071 -4.45851
394 1 3.09017 19.4806 -1.66137 -4.27978
395 1 5.57876 14.3446 58.0967 -3.66743
396 1 4.76119 18.1294 -0.45953 -4.46461
397 1 8.982 17.5245 58.8095 -4.3419
398 1 9.95312 17.9851 56.7577 -4.30043
399 1 7.08312 16.0407 58.7359 -4.52373
400 1 4.07502 19.1565 1.56524 -4.37176
401 1 7.062 15.9285 1.55738 -4.5775
402 1 9.44212 14.8253 56.2299 -4.61291
403 1 10.1968 13.7028 -0.776556 -4.46444
404 1 10.5191 15.9268 57.9527 -4.51988
405 1 1.82042 19.9279 -3.66745 -4.23835
406 1 -11.8667 -15.4183 1.39241 -4.30141
407 1 -7.40471 -17.3059 1.17713 -3.75389
408 1 -8.92854 -15.8261 5.81222 -3.59837
409 1 -6.13928 -18.0533 6.5607 -3.94432
410 1 -6.00854 -16.1071 2.64199 -4.57897
411 1 -5.03891 -17.4419 4.27174 -4.36773
412 1 -2.65219 -17.9683 0.894133 -3.90695
413 1 -2.99045 -18.3139 3.35707 -4.11106
414 1 -3.59838 -16.1574 5.57352 -4.50501
415 1 -1.58386 -18.7196 5.18045 -3.84429
416 1 -1.19623 -16.7388 2.53271 -5.29154
417 1 1.17968 -19.9085 -1.62693 -4.23426
418 1 0.296772 -17.8507 4.02731 -4.25076
419 1 2.48412 -17.3861 0.86425 -4.45813
420 1 0.561498 -18.5138 1.73421 -4.14325
421 1 0.833467 -15.853 5.29216 -4.41102
422 1 4.20104 -18.0633 6.58465 -4.3464
423 1 3.79457 -16.4541 2.59632 -4.51551
424 1 5.15362 -17.5446 4.18636 -4.44859
425 1 7.65282 -17.4036 0.639278 -4.48433
426 1 7.30716 -17.6072 3.01684 -3.49173
427 1 5.69992 -15.5342 5.19066 -4.65594
428 1 8.26153 -15.5695 2.02372 -4.53487
429 1 12.3994 -14.7274 7.22653 -4.31043
430 1 -16.8797 -9.49774 3.28017 -4.2971
431 1 -15.9027 -11.7369 3.14382 -4.09012
432 1 -12.9633 -13.9713 2.87394 -4.20906
433 1 -12.7829 -12.0287 1.37148 -4.6551
434 1 -14.8967 -13.3281 1.76154 -4.15046
435 1 -14.3358 -11.3736 5.16391 -4.89484
436 1 -11.8411 -13.6495 4.91583 -4.43961
437 1 -11.0401 -10.9029 2.84284 -4.38225
438 1 -9.60463 -14.7887 0.824578 -4.127
439 1 -9.9028 -12.3893 4.42306 -4.53765
440 1 -7.49441 -15.0139 4.16937 -4.62054
441 1 -7.22884 -12.4444 1.18447 -4.54477
442 1 -8.70049 -13.6329 2.62829 -4.47471
443 1 -8.89149 -10.9437 6.05626 -4.44772
444 1 -6.36705 -13.5413 5.64902 -4.57743
445 1 -6.28617 -11.0369 2.96112 -4.44441
446 1 -4.54496 -14.8649 1.12575 -4.47426
447 1 -4.86323 -12.2531 4.26743 -4.55553
448 1 -1.98325 -15.0878 4.12629 -4.25645
449 1 -2.33525 -12.3041 1.24697 -4.55283
450 1 -3.49748 -13.636 2.88809 -4.51048
451 1 -3.82721 -10.9193 6.03231 -4.40665
452 1 -1.51807 -13.2939 5.65669 -4.47812
453 1 -1.1516 -10.8161 2.76736 -4.502
454 1 -0.100155 -15.0596 1.15642 -4.28546
455 1 0.177697 -12.1303 4.33885 -4.40176
456 1 2.49905 -14.9189 3.91397 -4.59819
457 1 2.49901 -12.2853 1.23172 -4.51586
458 1 1.10544 -13.5617 2.48499 -4.49995
459 1 1.40039 -11.0678 6.28186 -4.36074
460 1 3.87436 -13.9921 5.48788 -4.40267
461 1 3.44068 -11.0403 2.95918 -4.50601
462 1 5.05084 -14.9277 1.3986 -4.44114
463 1 4.89791 -12.142 4.52494 -4.49515
464 1 7.61124 -14.6964 4.09642 -4.41647
465 1 7.74509 -12.2777 1.37855 -4.4678
466 1 6.10588 -13.3365 2.75635 -4.55911
467 1 5.97056 -11.1479 6.47691 -4.41493
468 1 8.60649 -13.5534 6.09244 -4.33378
469 1 8.51669 -10.9512 3.18473 -4.53053
470 1 10.5886 -15.3434 2.09162 -3.60721
471 1 9.94917 -12.3577 4.60365 -4.57994
472 1 12.9055 -14.2474 4.85868 -3.93097
473 1 12.7128 -12.2616 1.38655 -4.41897
474 1 11.4536 -13.428 3.10153 -4.64974
475 1 11.0553 -10.9308 6.06951 -4.44583
476 1 12.6458 -12.3595 7.10242 -4.71777
477 1 13.9818 -10.8913 2.82562 -4.46581
478 1 14.4589 -12.5151 4.60835 -3.65217
479 1 14.9787 -12.4611 6.96532 -4.47314
480 1 -17.2564 -7.56043 1.85063 -4.52671
481 1 -18.4084 -4.6413 7.74808 -4.27684
482 1 -16.3784 -8.7578 5.52146 -4.4213
483 1 -15.9719 -6.22492 3.38425 -4.66174
484 1 -15.1018 -9.95904 1.821 -4.62145
485 1 -14.6363 -7.42621 4.853 -4.61484
486 1 -12.4454 -9.95617 4.57247 -4.35135
487 1 -12.2846 -7.47177 1.57776 -4.3808
488 1 -13.619 -8.61674 3.07965 -4.60927
489 1 -13.6373 -6.31302 6.73637 -4.4447
490 1 -11.4578 -8.7939 6.56844 -4.30807
491 1 -11.181 -6.24341 3.39119 -4.42294
492 1 -9.58389 -9.70724 1.32275 -4.47137
493 1 -10.0651 -7.54931 4.96064 -4.43336
494 1 -7.43079 -9.85915 4.59421 -4.45631
495 1 -7.47282 -7.31153 1.47814 -4.43622
496 1 -8.66921 -8.40173 3.22457 -4.3836
497 1 -8.6619 -6.37482 6.4775 -4.50611
498 1 -6.30013 -8.85157 6.40587 -4.47318
499 1 -6.25253 -6.09962 3.16206 -4.47139
500 1 -5.04385 -9.93533 1.37603 -4.43584
501 1 -5.1052 -7.55612 4.75839 -4.4032
502 1 -2.43652 -9.75111 4.47858 -4.42522
503 1 -2.54664 -7.47089 1.35238 -4.45263
504 1 -3.76472 -8.7036 2.93901 -4.45798
505 1 -3.84825 -6.3679 6.3194 -4.56586
506 1 -1.40167 -8.54932 6.12425 -4.42526
507 1 -1.1979 -6.22746 3.07371 -4.51306
508 1 0.079657 -9.57005 1.09805 -4.44661
509 1 0.145355 -7.43818 4.58355 -4.43861
510 1 2.47122 -9.65655 4.65102 -4.41795
511 1 2.68896 -7.37269 1.48382 -4.48853
512 1 1.23083 -8.6143 2.89451 -4.41868
513 1 1.19251 -6.05744 6.34716 -4.47767
514 1 3.56098 -8.3954 6.32213 -4.43564
515 1 3.38718 -5.89614 3.24499 -4.44507
516 1 5.03442 -9.84984 1.64636 -4.55608
517 1 4.70537 -7.12432 4.67914 -4.50115
518 1 7.12158 -9.84357 4.73505 -4.45709
519 1 7.29607 -6.91688 1.72346 -4.52854
520 1 6.13462 -8.37378 3.11231 -4.50625
521 1 6.00021 -5.94693 6.41029 -4.41822
522 1 8.32504 -8.56639 6.39569 -4.50376
523 1 8.71383 -5.99354 3.38103 -4.47655
524 1 9.88877 -9.50758 1.81796 -4.58792
525 1 9.78311 -7.21598 5.07218 -4.50105
526 1 12.5144 -9.81567 4.47312 -4.55984
527 1 12.3715 -7.02811 1.84876 -4.465
528 1 11.1139 -8.28256 3.37107 -4.5405
529 1 11.1567 -6.06632 6.60947 -4.55301
530 1 13.9387 -8.79456 6.08301 -4.45775
531 1 13.6045 -5.82322 3.50503 -4.46724
532 1 15.1611 -9.71995 1.15245 -4.31917
533 1 15.1662 -7.25196 4.67141 -4.64834
534 1 16.1867 -5.75274 1.40575 -4.44026
535 1 15.9104 -7.90089 2.60271 -3.62364
536 1 16.307 -6.0302 6.33643 -4.03702
537 1 17.7102 -4.26922 2.33138 -4.42178
538 1 -17.4783 -4.97878 4.70738 -4.54201
539 1 -16.6617 -2.92261 1.46355 -4.33868
540 1 -18.4684 -4.01851 2.61407 -4.35081
541 1 -18.8974 -1.72409 3.63389 -3.96341
542 1 -15.8998 -3.69527 5.87078 -4.5828
543 1 -16.6016 -1.07668 3.04785 -5.33725
544 1 -14.6761 -5.31323 1.684 -4.33378
545 1 -14.8195 -2.2068 4.43938 -4.211
546 1 -12.5744 -4.97654 4.92263 -4.44381
547 1 -12.525 -2.43141 1.67248 -4.5625
548 1 -13.6867 -3.80868 3.15319 -4.44786
549 1 -13.7914 -1.2402 6.48889 -4.38131
550 1 -11.2591 -3.85747 6.52088 -4.49927
551 1 -11.2763 -1.08838 3.26602 -4.44614
552 1 -10.0385 -4.99324 1.70645 -4.45965
553 1 -10.1728 -2.59335 4.77363 -4.49371
554 1 -7.53532 -4.92284 4.91292 -4.46201
555 1 -7.53413 -2.19028 1.72587 -4.47138
556 1 -8.71676 -3.62261 3.20045 -4.52901
557 1 -8.81147 -1.3823 6.38457 -4.54044
558 1 -6.15424 -3.69627 6.30462 -4.55516
559 1 -6.16052 -0.994242 3.38783 -4.53748
560 1 -5.0607 -4.81005 1.60988 -4.47876
561 1 -4.81065 -2.39709 4.82436 -4.52566
562 1 -2.40279 -5.10021 4.81316 -4.49043
563 1 -2.39046 -2.38035 1.53375 -4.52237
564 1 -3.60346 -3.71272 3.23773 -4.48708
565 1 -3.78154 -1.04886 6.50147 -4.46661
566 1 -1.30471 -3.70171 6.34281 -4.49036
567 1 -1.42116 -0.929326 3.07726 -4.47401
568 1 0.21696 -4.78074 1.67454 -4.46884
569 1 -0.213212 -2.18986 4.7327 -4.48238
570 1 2.39952 -4.48908 5.01763 -4.47295
571 1 2.57779 -2.01133 1.77056 -4.42302
572 1 1.23959 -3.30332 3.29863 -4.51042
573 1 1.04637 -1.05304 6.50718 -4.5184
574 1 3.61996 -3.30402 6.64121 -4.55485
575 1 3.51847 -0.785778 3.64523 -4.4257
576 1 4.7717 -4.61222 1.77395 -4.48564
577 1 4.88725 -1.9951 5.08627 -4.51919
578 1 7.55585 -4.66595 4.92078 -4.46918
579 1 7.53345 -2.15583 2.0899 -4.47453
580 1 6.06075 -3.42514 3.47597 -4.53408
581 1 6.24684 -0.906495 6.76873 -4.50188
582 1 8.52804 -3.59174 6.88164 -4.46747
583 1 8.87652 -1.02707 3.80946 -4.48054
584 1 9.84759 -4.56676 1.85161 -4.5019
585 1 10.0765 -2.40195 5.43477 -4.45867
586 1 12.3998 -4.70928 5.19866 -4.51141
587 1 12.5825 -2.19691 2.16425 -4.25001
588 1 11.1482 -3.42254 3.56398 -4.49907
589 1 11.2253 -0.985419 7.03035 -4.51632
590 1 13.557 -3.45196 6.81436 -4.53729
591 1 13.4985 -0.964734 3.95357 -4.54453
592 1 14.4935 -4.04477 2.04215 -4.84814
593 1 14.9781 -2.05648 5.38949 -4.49451
594 1 17.3226 -4.70816 4.65096 -3.55149
595 1 17.8652 -2.19459 1.07336 -4.24898
596 1 16.1103 -3.1009 3.48838 -4.37744
597 1 16.2263 -0.336564 6.41868 -4.36478
598 1 18.286 -0.809113 7.41019 -4.37073
599 1 18.8161 -0.542843 2.66304 -4.31957
600 1 -18.6249 0.0745482 2.18911 -4.01555
601 1 -16.8397 0.300621 5.05271 -4.47284
602 1 -16.4056 2.76201 2.26027 -4.6126
603 1 -17.9589 1.87188 3.77805 -4.54036
604 1 -17.5868 3.49822 5.49925 -4.46128
605 1 -15.6569 1.41609 6.78556 -4.59337
606 1 -15.8215 4.17538 4.10537 -4.51304
607 1 -14.9098 -0.004462 1.70297 -4.31618
608 1 -14.4189 2.46251 5.04097 -4.45606
609 1 -12.3754 -0.0013355 5.11918 -4.40245
610 1 -12.6446 2.75283 1.70256 -4.30883
611 1 -13.5977 1.12388 3.31793 -4.34198
612 1 -13.2445 3.80564 6.50491 -4.56034
613 1 -11.0406 1.32024 6.74759 -4.45181
614 1 -11.283 4.00725 3.34719 -4.40617
615 1 -10.1304 0.218849 1.63898 -4.50132
616 1 -10.0038 2.7925 4.96335 -4.46245
617 1 -7.63915 0.145938 4.91868 -4.53871
618 1 -7.75696 2.67578 1.7266 -4.52108
619 1 -8.95031 1.42617 3.32994 -4.49126
620 1 -8.65576 4.05185 6.36994 -4.45974
621 1 -6.33138 1.39197 6.51733 -4.47701
622 1 -6.23235 3.97754 3.0253 -4.47697
623 1 -4.9861 0.296348 1.69878 -4.54955
624 1 -5.2651 2.56716 4.69251 -4.49718
625 1 -2.59429 0.254991 4.85197 -4.45465
626 1 -2.57487 2.85961 1.50301 -4.43651
627 1 -3.66941 1.56903 3.21805 -4.52369
628 1 -3.98807 3.88536 6.1765 -4.4842
629 1 -1.42734 1.6759 6.37564 -4.50314
630 1 -1.09085 4.07353 3.09138 -4.41294
631 1 -0.00368523 0.315965 1.64356 -4.50076
632 1 -0.0256291 2.96021 4.84112 -4.46002
633 1 2.19955 0.418947 5.08211 -4.48314
634 1 2.42987 2.85247 1.62033 -4.45794
635 1 1.23477 1.63625 3.27599 -4.44576
636 1 1.22718 4.24333 6.45049 -4.52382
637 1 3.50119 1.56826 6.71636 -4.58429
638 1 3.39398 4.1194 3.43557 -4.49408
639 1 4.81739 0.265331 1.90095 -4.41422
640 1 4.64731 3.01846 5.21591 -4.51721
641 1 7.49536 0.373485 5.11675 -4.52481
642 1 7.16906 2.66191 2.05921 -4.45298
643 1 5.88107 1.51299 3.71449 -4.46787
644 1 6.20469 4.23121 6.66745 -4.53066
645 1 8.63033 1.49334 6.91675 -4.49057
646 1 8.17568 3.95111 3.68577 -4.49459
647 1 9.94637 0.290556 2.11425 -4.47864
648 1 9.6026 2.79414 5.21077 -4.47099
649 1 12.2246 0.364322 5.3833 -4.46414
650 1 12.4144 2.88062 2.40013 -4.49118
651 1 11.0888 1.62834 3.83667 -4.52909
652 1 10.9688 3.97476 6.94514 -4.44741
653 1 13.5111 1.57373 7.08741 -4.5305
654 1 13.7199 4.16457 3.93207 -4.44531
655 1 14.7693 0.12868 2.10423 -4.46735
656 1 14.757 2.73157 5.3832 -4.43776
657 1 17.1814 0.151967 4.27953 -4.6037
658 1 17.1468 2.39964 1.53627 -4.53427
659 1 15.7438 1.80227 3.34362 -4.53011
660 1 16.3461 3.99398 6.5219 -4.33595
661 1 18.6428 1.79686 5.07214 -4.47188
662 1 18.7596 3.78177 2.53324 -4.58456
663 1 19.8093 1.69564 3.06793 -4.20621
664 1 -17.9818 5.80511 5.61114 -4.52101
665 1 -16.292 7.78913 2.00865 -4.5447
666 1 -17.1297 5.93586 3.36746 -4.24632
667 1 -15.8103 6.58868 6.25443 -4.54583
668 1 -15.6717 9.87544 2.89963 -3.60669
669 1 -15.603 5.30524 0.204561 -4.83461
670 1 -14.2259 6.90534 4.4615 -4.26486
671 1 -12.517 5.35036 4.94979 -4.59368
672 1 -12.7939 7.92964 1.07097 -4.58878
673 1 -14.3636 6.50346 1.97265 -4.37177
674 1 -13.5007 8.76415 5.89515 -4.23976
675 1 -11.0292 6.42056 6.44564 -4.55194
676 1 -11.5113 8.67116 2.94933 -4.2694
677 1 -10.0732 4.9908 1.55114 -4.3998
678 1 -10.1253 7.64224 4.60642 -4.50561
679 1 -7.38684 5.14979 4.66145 -4.47794
680 1 -7.56108 7.47031 1.50609 -4.47201
681 1 -8.84104 6.30214 3.13119 -4.53238
682 1 -9.08951 9.32322 5.81909 -4.2973
683 1 -6.42899 6.60205 6.26766 -4.53218
684 1 -6.09561 8.63872 2.84162 -4.4967
685 1 -5.01659 5.10904 1.33379 -4.46391
686 1 -4.94407 7.64244 4.66138 -4.40871
687 1 -2.55205 5.03126 4.64088 -4.48263
688 1 -2.43355 7.6254 1.709 -4.39387
689 1 -3.76477 6.18604 3.02926 -4.47489
690 1 -4.03024 8.94165 6.42462 -4.47133
691 1 -1.47747 6.28039 6.36638 -4.46508
692 1 -1.5116 9.12847 3.40932 -4.42033
693 1 -0.162421 5.43229 1.42314 -4.42407
694 1 -0.319093 7.74069 4.88324 -4.53208
695 1 2.36155 5.65041 4.91083 -4.46343
696 1 2.37815 7.69974 1.87744 -4.51428
697 1 0.949371 6.51828 3.19117 -4.44757
698 1 0.865476 8.97944 6.56209 -4.51228
699 1 3.65373 6.70365 6.60114 -4.51394
700 1 3.54532 8.99813 3.49305 -4.48152
701 1 4.88949 5.32405 1.98982 -4.51087
702 1 4.91167 8.03031 5.19929 -4.48586
703 1 7.41769 5.57795 5.23898 -4.45028
704 1 7.39017 7.88603 2.17695 -4.43079
705 1 5.94026 6.62188 3.65401 -4.49098
706 1 6.05028 9.12097 6.91088 -4.38541
707 1 8.7471 6.71234 7.02778 -4.36121
708 1 8.36865 8.78125 4.19456 -4.56823
709 1 9.61766 5.02807 2.13567 -4.53083
710 1 10.0612 7.87946 5.53333 -4.31871
711 1 12.301 5.31706 5.39334 -4.4572
712 1 12.4403 7.37705 2.53074 -4.47666
713 1 10.858 6.35127 3.82238 -4.5538
714 1 11.7458 9.28181 8.18357 -4.4438
715 1 13.4731 6.46157 7.09425 -4.37345
716 1 13.3714 8.40543 4.48113 -4.2782
717 1 15.0465 4.86806 2.07098 -4.36055
718 1 14.9258 8.24593 6.40045 -4.7524
719 1 17.8797 4.06968 4.72035 -4.31136
720 1 18.001 7.15492 2.19178 -4.35701
721 1 15.9076 6.674 3.3093 -4.54017
722 1 16.6612 9.43207 7.50121 -4.11075
723 1 17.9402 6.49935 4.47871 -4.23124
724 1 -14.9114 11.3176 4.72112 -4.29665
725 1 -14.9709 10.7874 0.824295 -4.7017
726 1 -14.3017 13.0062 3.04362 -4.50455
727 1 -12.7399 10.343 4.30599 -4.83243
728 1 -11.435 12.7214 1.06893 -4.17256
729 1 -13.0256 11.3489 2.07868 -4.56526
730 1 -12.4995 13.7272 4.22459 -4.05998
731 1 -10.8581 10.9916 5.86604 -4.76462
732 1 -10.4977 14.1219 2.80901 -5.34305
733 1 -10.0157 9.68912 1.35431 -4.50787
734 1 -9.76778 12.2343 4.10698 -4.20308
735 1 -7.45731 9.95075 4.19387 -4.63713
736 1 -7.55052 12.6733 0.700381 -4.45895
737 1 -8.53448 11.08 2.46439 -4.52455
738 1 -7.97553 12.9018 5.51154 -4.50164
739 1 -6.31684 11.4212 5.50096 -4.27572