ITEM: TIMESTEP
212000
ITEM: NUMBER OF ATOMS
4050
ITEM: BOX BOUNDS ss ss pp
-2.0424639112080762e+01 2.0808159780537160e+01
-2.0656494055907547e+01 2.0741054478711366e+01
-2.8784300000000007e+00 5.7188430000000004e+01
ITEM: ATOMS id type x y z c_peratom
1 1 -12.4685 -15.1995 -0.694461 -3.9465
2 1 -7.75467 -17.8393 -1.9584 -4.32928
3 1 -9.33824 -17.1588 1.34544 -4.59922
4 1 -7.56537 -18.5997 0.928775 -3.8766
5 1 -6.36327 -16.2736 -0.996701 -4.68703
6 1 -5.38503 -17.8807 0.262163 -4.68014
7 1 -2.92813 -18.3432 -2.69643 -4.59038
8 1 -5.04548 -19.0367 -1.77675 -3.90917
9 1 -3.96672 -16.8983 2.01785 -4.40573
10 1 -0.9402 -19.4954 2.08477 -4.53588
11 1 -2.05008 -16.6671 -1.2795 -4.34551
12 1 -0.0926339 -19.8065 -1.06004 -4.54
13 1 -0.665452 -17.9157 0.279151 -4.61743
14 1 3.14612 -17.7946 56.9043 -4.60959
15 1 2.01947 -18.9396 -1.38452 -3.85116
16 1 1.15375 -16.6902 1.2934 -4.60894
17 1 2.98884 -19.4845 0.671081 -4.3338
18 1 3.83516 -16.4177 -1.40649 -4.6752
19 1 5.09978 -17.9768 -0.289019 -4.28737
20 1 6.4923 -18.3142 -2.1484 -4.18007
21 1 9.36958 -17.3333 0.714356 -4.28909
22 1 6.19994 -16.7026 1.40914 -4.44312
23 1 8.74925 -16.9253 -1.48417 -4.02728
24 1 11.2901 -16.0071 1.29681 -3.6904
25 1 -15.2064 -12.4677 -0.899275 -4.16577
26 1 -15.5512 -13.6826 1.25762 -4.28294
27 1 -14.2267 -15.557 0.625132 -4.19547
28 1 -12.7549 -13.3442 56.8705 -4.54003
29 1 -14.4057 -14.3697 -1.72893 -4.26869
30 1 -14.191 -11.7064 1.04241 -4.19403
31 1 -11.5591 -14.1647 1.33694 -4.84752
32 1 -11.4851 -11.887 -1.81477 -4.54011
33 1 -10.4888 -15.643 -2.60655 -4.17869
34 1 -10.108 -12.7681 -0.114382 -4.36719
35 1 -8.09062 -15.4051 0.447451 -4.55279
36 1 -7.48272 -12.8691 -2.82079 -4.55971
37 1 -8.93346 -14.3481 -1.45926 -4.59166
38 1 -8.98452 -11.6114 1.73376 -4.4531
39 1 -6.52967 -14.2506 1.83048 -4.54598
40 1 -6.2771 -11.4748 -1.40998 -4.49641
41 1 -4.92429 -15.5591 57.412 -4.48483
42 1 -5.2965 -12.8571 0.31128 -4.51686
43 1 -3.02947 -15.2877 0.470644 -4.47196
44 1 -2.28502 -13.1006 57.2002 -4.47005
45 1 -3.85919 -13.9805 -1.22546 -4.50619
46 1 -3.83148 -11.5638 1.73566 -4.60525
47 1 -1.36704 -14.0818 1.61252 -4.61065
48 1 -1.33545 -11.6108 -1.36674 -4.55705
49 1 -0.277598 -16.1995 -2.90203 -4.84275
50 1 -0.0347203 -12.9757 0.0214642 -4.53032
51 1 2.42957 -15.1921 -0.0463001 -4.53976
52 1 2.56622 -13.2342 57.0649 -4.52869
53 1 0.857028 -14.3088 -1.67183 -4.29052
54 1 1.11428 -11.4207 1.44349 -4.53821
55 1 3.94266 -13.9236 1.3865 -4.55362
56 1 3.63797 -11.5809 -1.62795 -4.56608
57 1 5.16541 -15.303 57.0191 -4.55776
58 1 5.17908 -12.6823 -0.227253 -4.56903
59 1 7.72665 -15.4676 0.0428156 -4.97543
60 1 7.93979 -12.92 57.0243 -4.49301
61 1 6.49117 -14.0886 -1.53516 -4.42394
62 1 6.17316 -11.3276 1.46576 -4.54514
63 1 8.8135 -13.8684 1.61708 -4.46217
64 1 8.74102 -11.5004 -1.31157 -4.47936
65 1 10.3316 -15.5174 -2.71759 -4.5009
66 1 10.077 -12.2976 0.375911 -4.47552
67 1 12.5537 -15.1705 -0.404269 -4.54827
68 1 12.5139 -12.476 -2.33575 -4.33562
69 1 10.9303 -13.7886 -1.25102 -4.69389
70 1 11.5355 -11.4378 2.03918 -4.55689
71 1 13.8068 -13.4516 0.721147 -4.03794
72 1 13.9938 -11.5008 -0.721271 -5.46625
73 1 15.8175 -13.0675 -0.630356 -4.08603
74 1 16.0601 -10.9806 0.457061 -3.88767
75 1 -17.7496 -7.55941 56.5079 -4.25038
76 1 -19.065 -5.79593 2.73938 -4.18989
77 1 -16.6447 -8.62366 2.02137 -3.61631
78 1 -16.873 -6.43014 -1.35833 -4.24232
79 1 -15.2129 -10.7387 -2.68427 -4.3625
80 1 -15.4341 -7.82284 0.0884751 -4.55025
81 1 -12.5633 -10.3896 -0.227307 -4.50602
82 1 -12.7557 -7.76337 56.983 -4.54653
83 1 -13.9848 -9.04782 -1.55273 -4.60899
84 1 -14.0369 -6.42919 1.31209 -4.5009
85 1 -11.5055 -9.00088 1.51066 -4.50563
86 1 -11.6512 -6.32567 -1.62335 -4.54951
87 1 -10.0033 -10.411 -2.99559 -4.62347
88 1 -10.2941 -7.57116 0.0175392 -4.56079
89 1 -7.66393 -10.4323 0.310811 -4.50795
90 1 -7.69193 -7.71325 -2.99044 -4.558
91 1 -8.91452 -9.03736 -1.36347 -4.51834
92 1 -8.88479 -6.39348 1.57564 -4.56312
93 1 -6.48636 -8.8015 1.47336 -4.55271
94 1 -6.46252 -6.34036 -1.58067 -4.58018
95 1 -4.97036 -10.1326 -2.97664 -4.53238
96 1 -5.20553 -7.5991 -0.0797865 -4.55055
97 1 -2.62292 -10.1854 0.191265 -4.49039
98 1 -2.39896 -7.52329 57.2272 -4.53896
99 1 -3.76116 -8.86241 -1.42783 -4.59467
100 1 -3.89382 -6.35893 1.53033 -4.53286
101 1 -1.41658 -8.77743 1.7994 -4.52259
102 1 -1.20975 -6.25977 -1.23782 -4.61371
103 1 -0.035153 -10.4974 57.1013 -4.57744
104 1 0.0496356 -7.67882 0.248614 -4.53237
105 1 2.52447 -10.171 -0.0268396 -4.5404
106 1 2.69043 -7.82968 57.1157 -4.521
107 1 1.09357 -8.89722 -1.61657 -4.49676
108 1 1.23955 -6.21899 1.68706 -4.55382
109 1 3.70113 -8.7608 1.5436 -4.50775
110 1 3.8743 -6.41682 -1.55231 -4.51885
111 1 5.09993 -10.2922 57.1074 -4.54401
112 1 5.15912 -7.49221 0.0293029 -4.51861
113 1 7.62012 -10.046 0.0815765 -4.58096
114 1 7.83465 -7.5897 -3.07017 -4.51586
115 1 6.40604 -8.80624 -1.5871 -4.58762
116 1 6.48619 -6.32977 1.59669 -4.57347
117 1 9.01161 -8.89131 1.60873 -4.53792
118 1 8.9903 -6.373 -1.39786 -4.52615
119 1 10.1238 -10.2331 -2.76715 -4.50505
120 1 10.39 -7.58418 0.0773398 -4.5658
121 1 12.6465 -9.95375 0.704794 -4.33103
122 1 12.9116 -7.89596 57.4681 -4.51735
123 1 11.5248 -9.2261 -1.23376 -4.51536
124 1 11.6782 -6.37598 1.66742 -4.51355
125 1 14.2332 -8.60891 1.80064 -4.67367
126 1 14.142 -6.66533 -1.06391 -4.60489
127 1 15.0892 -10.6332 -2.63977 -4.40958
128 1 15.7574 -7.87535 0.170801 -4.6232
129 1 16.8839 -7.03565 57.1899 -4.16915
130 1 16.562 -9.44804 -1.30679 -4.13317
131 1 16.9344 -5.971 0.832183 -4.10137
132 1 18.6451 -5.63544 57.0714 -4.06101
133 1 -18.5708 -5.27256 0.16196 -3.95736
134 1 -17.9575 -2.64226 -2.61151 -4.99358
135 1 -19.2874 -2.90005 -0.495295 -4.1396
136 1 -17.9494 -1.93836 1.31673 -4.57213
137 1 -16.9727 -4.93026 1.95514 -4.45132
138 1 -16.5165 -1.02131 -1.66827 -4.59891
139 1 -15.1151 -5.32775 -2.61228 -4.54965
140 1 -15.8991 -2.3538 0.187128 -4.45608
141 1 -12.748 -4.94301 -0.0527628 -4.57061
142 1 -13.103 -2.42678 57.0419 -4.4678
143 1 -14.267 -3.57527 -1.34707 -4.41173
144 1 -14.4036 -0.978928 1.46254 -4.5649
145 1 -11.5057 -3.69955 1.61183 -4.56185
146 1 -11.5801 -1.35251 -1.55801 -4.48594
147 1 -10.3664 -4.85447 57.1085 -4.56348
148 1 -10.3184 -2.27262 0.319139 -4.44514
149 1 -7.56686 -5.04822 0.0665763 -4.54058
150 1 -7.69344 -2.5053 57.2522 -4.47507
151 1 -9.06098 -3.70041 -1.29626 -4.54176
152 1 -8.84984 -0.936537 1.8296 -4.53989
153 1 -6.48329 -3.67584 1.70507 -4.58495
154 1 -6.61049 -1.29855 -1.18391 -4.55873
155 1 -5.0051 -5.04552 -2.95493 -4.5485
156 1 -5.07401 -2.5437 0.226024 -4.52993
157 1 -2.67765 -4.95366 0.157149 -4.56327
158 1 -2.40135 -2.56576 -2.86006 -4.55965
159 1 -3.93516 -3.74921 -1.41314 -4.5153
160 1 -3.82312 -1.11367 1.66778 -4.58351
161 1 -1.07122 -3.81752 1.60854 -4.55956
162 1 -1.34024 -1.26525 -1.23391 -4.57399
163 1 0.302284 -5.22001 57.3215 -4.56121
164 1 0.175687 -2.46419 0.190361 -4.56018
165 1 2.66703 -5.15612 0.117182 -4.52985
166 1 2.74554 -2.52412 -2.94252 -4.55371
167 1 1.4766 -3.7258 -1.31743 -4.59842
168 1 1.28033 -0.987303 1.69302 -4.58504
169 1 3.77472 -3.76709 1.74451 -4.56192
170 1 3.93773 -1.24868 -1.34968 -4.53069
171 1 5.10583 -5.06348 -2.88862 -4.49505
172 1 5.1876 -2.62919 0.256737 -4.56799
173 1 7.98908 -5.04676 0.257524 -4.54424
174 1 7.66343 -2.51241 -2.98336 -4.53083
175 1 6.50968 -3.84892 -1.26999 -4.48933
176 1 6.50181 -1.17195 1.78413 -4.56433
177 1 9.17348 -3.76521 1.86848 -4.49464
178 1 8.91583 -1.24771 -1.32149 -4.49806
179 1 10.3881 -5.12114 -2.77801 -4.6007
180 1 10.1682 -2.5811 0.136026 -4.56991
181 1 12.9134 -4.90779 0.254335 -4.53319
182 1 12.5645 -2.34402 -2.91378 -4.45024
183 1 11.6657 -3.69968 -1.26279 -4.51447
184 1 11.5988 -1.21797 1.55444 -4.57722
185 1 14.484 -3.72864 1.56177 -4.42496
186 1 13.7406 -1.30578 -1.20875 -4.52801
187 1 15.227 -5.39554 57.3246 -4.60269
188 1 15.5245 -2.32069 -0.0450473 -4.51307
189 1 18.3624 -4.89566 -0.768992 -4.57959
190 1 18.0082 -2.53305 -3.06276 -4.71691
191 1 16.573 -3.73596 -1.6379 -4.67569
192 1 16.4839 -1.08423 1.76139 -4.51726
193 1 18.9633 -2.76441 0.211078 -3.78631
194 1 19.1327 -1.03983 -1.49671 -3.91328
195 1 -19.6874 -0.990437 -2.06829 -4.33736
196 1 -18.5795 0.40212 1.4033 -4.33556
197 1 -18.149 2.57035 -2.63238 -4.33196
198 1 -18.1769 0.555612 -1.05928 -4.40217
199 1 -18.895 5.2164 2.46535 -4.06641
200 1 -16.7386 1.69572 2.09413 -4.60031
201 1 -17.0556 3.69418 -0.962516 -4.39619
202 1 -15.21 0.120247 56.8047 -4.56019
203 1 -15.4445 2.30017 0.131034 -4.45098
204 1 -12.7322 0.0331133 -0.0367642 -4.5504
205 1 -12.9125 2.71363 57.1538 -4.5665
206 1 -14.0114 1.30837 -1.55184 -4.48793
207 1 -14.3103 3.94721 1.43333 -4.55971
208 1 -11.6016 1.45603 1.52721 -4.56218
209 1 -11.5015 3.98097 -1.49724 -4.58127
210 1 -10.4033 0.0607658 -2.98961 -4.57305
211 1 -10.1559 2.6406 -0.0110773 -4.54775
212 1 -7.68445 0.266391 0.208591 -4.51622
213 1 -7.67654 2.6265 57.1801 -4.56606
214 1 -8.95945 1.25396 -1.53524 -4.55397
215 1 -8.95517 3.96482 1.70618 -4.55871
216 1 -6.18369 1.50703 1.63797 -4.57785
217 1 -6.45553 3.85837 -1.20675 -4.53511
218 1 -5.40231 -0.0144202 57.325 -4.54078
219 1 -4.87794 2.83767 0.229312 -4.54604
220 1 -2.61259 0.161905 0.202377 -4.54771
221 1 -2.64433 2.74064 57.4529 -4.58049
222 1 -4.00105 1.31091 -1.37656 -4.57646
223 1 -3.6886 4.05284 1.84195 -4.50432
224 1 -1.3858 1.48535 1.7656 -4.54916
225 1 -1.14968 3.96344 -1.27623 -4.55599
226 1 0.00340497 0.0974688 -2.79335 -4.52021
227 1 0.123348 2.74851 0.390923 -4.57963
228 1 2.79856 0.220338 0.238661 -4.54664
229 1 2.45398 2.69626 -2.75699 -4.54827
230 1 1.28764 1.3377 -1.13482 -4.57994
231 1 1.61142 4.21813 1.68001 -4.5579
232 1 4.00863 1.56794 1.6917 -4.57192
233 1 3.96931 3.86968 -1.43339 -4.53605
234 1 5.23326 0.0329317 -2.80555 -4.55225
235 1 5.35379 2.9624 0.280988 -4.50509
236 1 7.71132 0.00382375 0.161199 -4.54597
237 1 7.88741 2.53737 -2.82839 -4.56931
238 1 6.45005 1.47845 -1.27805 -4.55278
239 1 6.67223 4.30286 1.86022 -4.51626
240 1 8.96495 1.56186 1.54174 -4.57886
241 1 9.02434 4.01524 -1.36573 -4.54067
242 1 10.3637 0.0768655 57.3064 -4.4833
243 1 10.3144 2.92508 0.256946 -4.58284
244 1 12.7768 0.328175 0.147568 -4.56693
245 1 12.7462 2.98416 -2.88947 -4.61865
246 1 11.5154 1.62724 -1.38977 -4.55534
247 1 11.723 4.34602 1.60004 -4.53789
248 1 13.8863 1.70932 1.74414 -4.56739
249 1 14.2388 4.19586 -1.4479 -4.45876
250 1 14.9823 -0.0287919 -2.64914 -4.55452
251 1 15.2188 2.9177 0.237787 -4.34602
252 1 17.9096 0.0519658 0.232285 -4.6043
253 1 17.2563 2.49212 -2.27902 -4.4701
254 1 16.0742 1.00331 -0.850274 -4.47849
255 1 16.7972 4.35987 1.51307 -4.87312
256 1 19.2292 1.21285 1.81991 -4.33753
257 1 19.199 3.72245 -2.64857 -4.15086
258 1 18.9043 1.28433 56.7414 -3.77954
259 1 -18.4152 5.36914 0.0899952 -3.95897
260 1 -17.6206 8.03661 56.3562 -4.33315
261 1 -18.1513 6.41723 -2.18459 -4.20979
262 1 -16.991 6.54142 1.67169 -5.04344
263 1 -16.6862 8.99591 -1.67432 -3.6916
264 1 -16.0615 5.15411 -2.62159 -5.2328
265 1 -15.6047 7.9004 0.119021 -4.42004
266 1 -12.9325 5.15612 -0.0108208 -4.57843
267 1 -12.8588 7.75548 -2.68104 -4.52245
268 1 -14.3309 6.48933 -1.26811 -4.35898
269 1 -14.2962 9.06647 1.77261 -4.49412
270 1 -11.8149 6.602 1.54285 -4.5606
271 1 -11.5596 9.09845 -1.25679 -4.56171
272 1 -10.2935 5.29584 -2.94346 -4.56558
273 1 -10.2404 7.78999 0.158508 -4.60638
274 1 -7.66452 5.17882 0.238307 -4.57107
275 1 -7.68655 7.76805 -2.78156 -4.59693
276 1 -8.9754 6.42011 -1.2648 -4.54666
277 1 -9.00485 9.09057 1.59705 -4.46221
278 1 -6.35219 6.45255 1.68472 -4.55468
279 1 -6.37119 9.25331 -1.3768 -4.5687
280 1 -5.23428 5.35338 57.3396 -4.5688
281 1 -5.26251 7.86663 0.188978 -4.55631
282 1 -2.42256 5.28529 0.136799 -4.51711
283 1 -2.56823 8.00861 57.354 -4.53652
284 1 -3.83939 6.61431 -1.38344 -4.54171
285 1 -3.88869 9.21033 1.65314 -4.55087
286 1 -1.31733 6.52106 1.874 -4.55788
287 1 -1.22181 9.17932 -1.15101 -4.58487
288 1 0.0617929 5.38143 -2.88873 -4.53049
289 1 -0.0952063 7.759 0.364088 -4.50708
290 1 2.92678 5.39434 0.0865998 -4.53418
291 1 2.59115 7.72198 -2.8185 -4.53479
292 1 1.22702 6.61025 -1.24135 -4.53215
293 1 1.32184 9.28298 1.75302 -4.5601
294 1 4.00632 6.8455 1.6942 -4.53072
295 1 3.75408 9.16761 -1.34363 -4.56361
296 1 5.2971 5.25477 -2.89877 -4.55279
297 1 5.24646 8.15862 0.0842777 -4.60059
298 1 7.78884 5.50629 0.0786493 -4.59105
299 1 7.46745 7.65416 56.9403 -4.50844
300 1 6.34239 6.62033 -1.40179 -4.4905
301 1 6.76852 9.52264 1.24953 -4.49307
302 1 9.35314 6.89166 1.25688 -4.46762
303 1 8.74781 9.05047 -1.83779 -4.61424
304 1 10.0563 5.16631 56.9204 -4.50942
305 1 10.5154 8.20181 -0.439071 -4.34875
306 1 12.9221 5.72436 -0.075359 -4.46145
307 1 12.6767 7.66075 56.6766 -4.34243
308 1 11.4215 6.4896 -1.76292 -4.57992
309 1 12.2049 10.0976 2.07842 -4.46254
310 1 14.433 6.96538 1.41346 -4.49431
311 1 13.8756 8.62268 -1.73791 -4.25268
312 1 15.0243 5.1683 56.6909 -4.32209
313 1 16.1957 8.24115 0.465887 -4.54883
314 1 18.3622 4.62474 -0.26025 -4.04018
315 1 16.9604 6.33065 56.7645 -4.66084
316 1 17.2834 6.56968 -0.863065 -3.66687
317 1 17.1316 8.79714 2.58987 -4.07166
318 1 18.932 5.36117 1.98247 -4.1635
319 1 -15.5146 13.2604 2.86138 -4.22642
320 1 -15.3035 10.6641 -2.74701 -4.58613
321 1 -15.019 13.5237 0.453923 -4.18905
322 1 -12.6838 10.2447 0.509493 -4.58283
323 1 -12.8217 12.9896 -2.4828 -4.68868
324 1 -13.985 11.7443 -0.859454 -4.45573
325 1 -13.2861 13.8533 2.15022 -4.85109
326 1 -11.1495 11.3864 1.93566 -4.48356
327 1 -11.6469 14.5501 -1.08949 -4.44531
328 1 -10.261 10.4883 -2.74004 -4.59393
329 1 -10.3646 12.8495 0.248002 -4.46823
330 1 -7.73702 10.5079 0.142633 -4.56671
331 1 -7.90325 13.1183 56.8547 -4.50318
332 1 -8.94087 11.8592 -1.41859 -4.52287
333 1 -9.04709 14.31 1.51195 -4.54918
334 1 -6.25656 11.7122 1.61423 -4.56291
335 1 -6.65102 14.3974 -1.66354 -4.59784
336 1 -5.0639 10.473 -2.89799 -4.60027
337 1 -5.35231 13.0714 -0.138492 -4.48223
338 1 -2.65949 10.5258 0.141736 -4.56581
339 1 -2.42437 13.1696 57.1223 -4.52607
340 1 -3.70628 11.9204 -1.50168 -4.59193
341 1 -4.28399 14.4634 1.47637 -4.49708
342 1 -1.28376 11.867 1.72225 -4.54268
343 1 -1.38515 14.2899 -1.20068 -4.54763
344 1 0.0407533 10.3104 -2.81481 -4.50767
345 1 -0.0205183 12.8697 0.0555173 -4.58294
346 1 2.71974 10.6493 0.318159 -4.50128
347 1 2.60038 13.0221 -2.67351 -4.50838
348 1 1.38889 11.5569 -1.28647 -4.56504
349 1 1.13868 14.3027 1.54002 -4.56086
350 1 4.04077 12.1159 1.63316 -4.61652
351 1 3.90797 14.5001 -1.11499 -4.50689
352 1 5.22817 10.2847 57.2563 -4.53574
353 1 5.40461 13.4779 0.36562 -4.42914
354 1 8.05711 10.6944 -0.306413 -4.24865
355 1 7.33279 12.9476 57.3977 -4.40201
356 1 6.08267 11.7436 -1.16308 -4.53224
357 1 6.49328 14.859 2.01134 -4.55914
358 1 9.48038 12.9424 2.10778 -4.44001
359 1 8.63652 14.4545 -1.26044 -4.81011
360 1 10.1662 10.1402 56.8544 -4.43599
361 1 9.91238 12.6711 -0.181363 -4.58336
362 1 12.319 9.98766 -0.343029 -4.90061
363 1 12.3123 12.6822 56.373 -4.25081
364 1 11.337 11.6766 -1.71846 -4.65759
365 1 11.1854 14.4579 2.46833 -4.48414
366 1 14.0796 11.4814 2.34507 -4.46859
367 1 13.1256 13.1287 -1.46641 -4.25729
368 1 14.9473 9.84512 56.5636 -4.23541
369 1 14.2081 11.376 -0.0778369 -4.39453
370 1 15.7146 9.95268 -1.15661 -4.36639
371 1 -13.6676 15.4034 0.30199 -4.14695
372 1 -12.8692 16.1724 2.51759 -4.20071
373 1 -9.70307 16.0524 56.6766 -4.46649
374 1 -8.2089 15.5865 -0.360036 -4.52365
375 1 -8.66121 18.1012 56.39 -4.45374
376 1 -9.43023 17.2626 -1.42751 -4.37884
377 1 -6.85383 16.6804 1.19447 -4.77774
378 1 -7.73028 18.8848 -1.589 -3.59485
379 1 -5.5519 15.8841 56.9346 -4.51553
380 1 -5.83007 18.1434 -0.251223 -4.68005
381 1 -2.84159 15.6647 -0.00549714 -4.56075
382 1 -2.73588 18.2889 57.1386 -4.57913
383 1 -4.08161 16.9958 -1.52877 -4.50893
384 1 -5.13802 19.3587 1.78805 -3.9341
385 1 -1.78954 16.7809 1.74029 -4.55922
386 1 -1.00481 19.0254 -1.40795 -3.6934
387 1 0.0755661 15.4072 -2.76885 -4.52953
388 1 -0.122066 17.7643 0.45919 -4.72908
389 1 2.54887 15.6613 0.376331 -4.55207
390 1 2.58457 18.386 -1.95441 -4.42785
391 1 1.18443 16.7436 -1.19627 -4.60919
392 1 0.970858 19.4232 1.75647 -4.54045
393 1 3.55825 16.9923 1.92314 -4.60166
394 1 2.58075 19.6813 -0.0198763 -4.20574
395 1 5.19509 15.8337 -2.64608 -4.4389
396 1 4.54374 18.6556 0.699976 -4.35341
397 1 7.5997 16.4607 -0.452569 -4.34631
398 1 9.02966 17.6289 -1.97776 -4.25672
399 1 5.83735 17.666 -1.45133 -4.16884
400 1 5.37207 19.4397 2.80337 -3.59066
401 1 8.23971 16.4591 1.88624 -4.4233
402 1 9.81817 14.8976 56.6733 -4.24075
403 1 11.6029 14.3142 0.0185374 -4.28499
404 1 10.5073 15.9311 -1.45621 -4.26169
405 1 0.97568 20.0683 -2.07094 -4.29127
406 1 -12.7124 -15.9191 2.63197 -4.14602
407 1 -7.85193 -17.8001 3.13497 -3.65035
408 1 -9.27077 -16.7095 7.83801 -3.60627
409 1 -6.51483 -18.7418 8.4189 -4.11753
410 1 -6.4135 -16.7821 4.79588 -4.56054
411 1 -5.31725 -18.065 6.44637 -4.58621
412 1 -2.54723 -18.3039 3.5383 -4.48321
413 1 -3.42753 -19.0982 5.59277 -3.58483
414 1 -3.86335 -16.5075 7.43934 -4.49784
415 1 -1.48428 -19.2276 7.08426 -4.10216
416 1 -1.20701 -16.6537 4.49057 -4.68796
417 1 0.901879 -20.5119 0.977137 -3.86393
418 1 0.205316 -18.1838 5.58407 -4.50038
419 1 2.64598 -17.9408 2.53711 -4.59226
420 1 0.762159 -18.9543 3.49737 -3.95191
421 1 1.26558 -16.558 6.98787 -4.45601
422 1 4.21184 -19.1236 7.88709 -4.38016
423 1 3.69258 -16.7021 4.42107 -4.40927
424 1 5.12293 -17.6975 6.10093 -4.53401
425 1 7.82672 -17.7136 2.53652 -4.29318
426 1 6.9896 -18.2207 4.71275 -3.45146
427 1 6.4289 -16.5652 7.67689 -4.48067
428 1 9.05471 -17.0028 4.60748 -4.35936
429 1 12.842 -15.1742 8.71311 -4.51384
430 1 -17.4231 -9.87699 4.97272 -4.22291
431 1 -16.0009 -11.776 5.03913 -4.20236
432 1 -13.1378 -14.4934 4.45452 -4.19436
433 1 -12.8048 -12.714 2.79851 -4.79736
434 1 -15.0733 -13.4704 3.57023 -4.18201
435 1 -14.4406 -11.3852 7.00704 -4.43711
436 1 -12.0839 -14.0244 6.59388 -4.39545
437 1 -11.6853 -11.2992 4.38551 -4.44325
438 1 -10.3187 -15.5675 2.91814 -4.15861
439 1 -10.4331 -12.6322 5.78689 -4.64446
440 1 -7.90787 -15.5761 6.12813 -4.65594
441 1 -7.62374 -12.8413 3.32882 -4.60114
442 1 -9.08569 -14.2217 4.56753 -4.50742
443 1 -9.31814 -11.3871 7.47 -4.4736
444 1 -6.68438 -14.004 7.43319 -4.60624
445 1 -6.2482 -11.483 4.45828 -4.50433
446 1 -5.20893 -15.4617 3.37547 -4.59471
447 1 -5.17894 -12.8507 6.02551 -4.51487
448 1 -2.33602 -15.3616 6.12245 -4.55401
449 1 -2.47934 -12.7986 3.30712 -4.56699
450 1 -3.80005 -14.1347 4.72938 -4.62422
451 1 -3.86905 -11.4035 7.67914 -4.49818
452 1 -1.07728 -13.8816 7.49386 -4.61604
453 1 -1.35202 -11.2782 4.6433 -4.58055
454 1 0.106364 -15.3633 3.00181 -4.61005
455 1 0.0847214 -12.4403 6.0383 -4.50709
456 1 2.51342 -15.1424 5.73463 -4.57644
457 1 2.59951 -12.6074 2.73406 -4.58331
458 1 1.28484 -13.7562 4.19904 -4.47451
459 1 1.30212 -11.1577 7.57933 -4.566
460 1 3.77892 -13.7889 7.29516 -4.4785
461 1 3.83064 -11.3904 4.37184 -4.52032
462 1 5.08607 -15.2842 2.98183 -4.54056
463 1 5.221 -12.572 5.94487 -4.5657
464 1 7.67266 -15.4169 6.00278 -4.4377
465 1 7.58955 -12.5156 3.06853 -4.56349
466 1 6.39425 -14.025 4.47216 -4.56915
467 1 6.43962 -11.5547 7.65308 -4.55863
468 1 9.08637 -14.1516 7.57327 -4.49274
469 1 9.00188 -11.6368 4.73088 -4.5459
470 1 10.0874 -15.2779 3.13556 -4.50824
471 1 10.6173 -12.8708 6.07939 -4.53764
472 1 13.2286 -14.7765 6.35037 -3.72843
473 1 13.1395 -12.9583 3.12247 -4.40306
474 1 11.8156 -14.3021 4.53382 -4.55697
475 1 11.7057 -11.4054 7.42137 -4.45643
476 1 13.0947 -12.8727 8.72289 -4.6969
477 1 14.3426 -11.5177 4.46188 -4.57797
478 1 14.8913 -13.1577 6.25909 -3.68668
479 1 15.4653 -12.9978 8.53489 -4.47194
480 1 -18.082 -7.77829 3.75038 -4.53609
481 1 -18.8088 -5.52528 8.84896 -4.23801
482 1 -16.6773 -9.10439 7.24054 -4.59375
483 1 -16.6656 -6.25157 4.79672 -4.54235
484 1 -15.3719 -9.89848 3.60775 -4.60821
485 1 -15.3316 -7.36157 6.35325 -4.71154
486 1 -12.6856 -10.0475 6.16513 -4.61917
487 1 -12.7533 -7.68293 2.96268 -4.46411
488 1 -13.9373 -8.63857 4.89818 -4.62205
489 1 -13.9781 -5.93109 7.62793 -4.54809
490 1 -11.6327 -8.68431 7.79083 -4.47421
491 1 -11.5168 -6.36162 4.54231 -4.52249
492 1 -10.1875 -10.1448 3.04886 -4.56891
493 1 -10.3186 -7.54929 6.10478 -4.50762
494 1 -7.71023 -10.4133 5.93314 -4.549
495 1 -7.76668 -7.76258 3.24198 -4.50942
496 1 -9.11324 -8.97887 4.73371 -4.55578
497 1 -8.97023 -6.27736 7.55178 -4.59792
498 1 -6.62245 -8.97847 7.51169 -4.54738
499 1 -6.48872 -6.38601 4.68718 -4.52406
500 1 -5.11559 -9.97823 2.90916 -4.5427
501 1 -5.30064 -7.41087 6.32341 -4.52792
502 1 -2.90639 -10.0035 6.10221 -4.52514
503 1 -2.69066 -7.34538 3.33788 -4.48366
504 1 -4.15077 -8.65204 4.60153 -4.55946
505 1 -4.00335 -6.01442 7.67364 -4.55923
506 1 -1.46824 -8.69778 7.5431 -4.58402
507 1 -1.40836 -6.28429 4.96737 -4.50307
508 1 0.118887 -10.1673 3.20557 -4.50725
509 1 0.0972718 -7.38368 6.33264 -4.55424
510 1 2.56219 -10.0159 5.99098 -4.57798
511 1 2.55694 -7.47962 3.15993 -4.59586
512 1 1.2204 -8.71862 4.64696 -4.56609
513 1 1.53475 -5.94793 7.66474 -4.60071
514 1 3.9162 -8.71003 7.44357 -4.56644
515 1 4.00927 -6.27434 4.57851 -4.5835
516 1 5.00252 -9.97977 3.0152 -4.56522
517 1 5.44211 -7.66902 6.04408 -4.5287
518 1 7.65529 -10.2272 6.17901 -4.58028
519 1 7.78282 -7.58667 3.14254 -4.59315
520 1 6.53155 -9.0424 4.54452 -4.49726
521 1 6.45829 -6.2925 7.76436 -4.55756
522 1 9.09618 -9.01878 7.66238 -4.59505
523 1 9.04652 -6.36909 4.75908 -4.54579
524 1 10.1141 -10.2047 3.33884 -4.5681
525 1 10.3741 -7.7784 6.10369 -4.60928
526 1 13.1062 -10.2182 6.02785 -4.57072
527 1 13.0481 -7.33261 3.39701 -4.39288
528 1 11.7401 -8.93715 4.60677 -4.59808
529 1 11.7445 -6.59129 7.60823 -4.56714
530 1 14.3443 -9.12792 7.7473 -4.53412
531 1 14.6382 -6.28696 4.63753 -4.65907
532 1 15.4932 -10.0145 3.1076 -4.07671
533 1 15.5555 -7.43999 6.69891 -4.19788
534 1 17.509 -6.79563 3.09737 -4.37671
535 1 16.1145 -8.24173 4.51729 -4.23396
536 1 17.0495 -6.17874 8.1395 -4.31395
537 1 18.8071 -5.48478 4.46822 -3.5855
538 1 -17.9544 -5.19587 6.46033 -4.32522
539 1 -17.3944 -3.09272 3.33015 -4.30886
540 1 -19.0493 -4.10669 4.53711 -4.38297
541 1 -19.468 -1.75048 5.44526 -3.89966
542 1 -16.7421 -3.45553 7.46241 -4.512
543 1 -17.2633 -0.97358 4.60922 -5.28537
544 1 -15.1199 -5.5808 3.22867 -4.37196
545 1 -15.6719 -2.24318 5.94783 -4.19388
546 1 -12.9463 -4.77768 5.87103 -4.49153
547 1 -13.0939 -2.4834 2.82858 -4.58075
548 1 -14.4411 -3.61247 4.44507 -4.52902
549 1 -14.022 -1.1865 7.3705 -4.5046
550 1 -11.629 -3.74537 7.55371 -4.5522
551 1 -11.6892 -1.23553 4.38039 -4.54054
552 1 -10.1907 -5.08506 3.02566 -4.57376
553 1 -10.4777 -2.42441 6.00871 -4.57336
554 1 -7.62412 -4.88753 6.15994 -4.55146
555 1 -7.7671 -2.40989 3.29165 -4.57537
556 1 -8.99178 -3.79887 4.70472 -4.57175
557 1 -8.95912 -1.23421 7.38254 -4.50995
558 1 -6.46424 -3.53846 7.78795 -4.53628
559 1 -6.26376 -1.15871 4.67883 -4.62359
560 1 -5.1662 -5.05336 3.0759 -4.58058
561 1 -5.01076 -2.5102 6.12738 -4.50332
562 1 -2.58579 -4.81817 6.20967 -4.54726
563 1 -2.30334 -2.29632 3.05872 -4.55965
564 1 -3.68109 -3.70821 4.46295 -4.54064
565 1 -3.72962 -1.31053 7.73592 -4.58037
566 1 -1.17209 -3.42043 7.54426 -4.53607
567 1 -1.1327 -1.08304 4.63874 -4.55602
568 1 -0.0274274 -5.08062 3.33679 -4.48757
569 1 0.302688 -2.16868 6.18219 -4.57225
570 1 2.89694 -4.84338 6.06608 -4.5647
571 1 2.60693 -2.26441 3.24037 -4.57455
572 1 1.31165 -3.63824 4.69831 -4.60952
573 1 1.61879 -0.645707 7.5783 -4.55638
574 1 4.07651 -3.60785 7.65181 -4.57301
575 1 3.95763 -1.08721 4.76093 -4.53257
576 1 5.25259 -4.93394 3.12113 -4.59202
577 1 5.39596 -2.34005 6.185 -4.58626
578 1 7.85403 -5.06229 6.30818 -4.61198
579 1 7.80813 -2.54552 3.20628 -4.58873
580 1 6.5017 -3.79294 4.81151 -4.52828
581 1 6.65271 -1.01326 7.54092 -4.53774
582 1 9.37089 -3.72835 7.62949 -4.5598
583 1 9.05132 -0.997318 4.50777 -4.57501
584 1 10.5604 -5.08308 3.24022 -4.56566
585 1 10.3089 -2.40616 5.97952 -4.53602
586 1 13.0245 -5.17331 6.2618 -4.39119
587 1 13.0319 -2.50997 3.06683 -4.53449
588 1 11.8007 -3.79061 4.73351 -4.58332
589 1 11.519 -1.24823 7.65738 -4.58679
590 1 14.38 -3.69732 7.49882 -4.54705
591 1 14.0359 -1.09249 4.72631 -4.59122
592 1 15.8308 -5.1462 2.92393 -4.6617
593 1 15.6172 -2.39332 5.90209 -4.31808
594 1 17.9614 -4.68665 6.54105 -3.50087
595 1 18.2365 -2.53601 2.48501 -4.35847
596 1 17.1421 -3.6916 4.40155 -4.88699
597 1 17.0729 -1.00709 7.31197 -4.40152
598 1 19.2363 -1.03423 8.13709 -4.27654
599 1 19.2494 -0.529681 3.50374 -4.37447
600 1 -19.5107 0.155226 3.85254 -3.93046
601 1 -17.535 0.528215 6.43118 -4.46765
602 1 -18.0442 3.14493 3.53634 -4.43682
603 1 -19.1095 1.91867 5.37923 -4.4875
604 1 -18.8338 3.90855 6.81848 -4.16138
605 1 -16.3093 1.83291 7.89138 -4.61187
606 1 -16.9267 4.36002 5.16212 -4.90166
607 1 -15.4743 0.165161 3.3169 -4.34215
608 1 -15.2767 2.77334 6.07424 -4.40639
609 1 -12.5736 0.239894 5.97805 -4.56077
610 1 -12.9518 2.71344 2.97928 -4.56648
611 1 -14.0538 1.43538 4.59837 -4.54645
612 1 -14.0778 4.22544 7.47419 -4.61372
613 1 -11.489 1.60006 7.64787 -4.57445
614 1 -11.5436 4.02093 4.49721 -4.55183
615 1 -10.3671 0.25249 3.10893 -4.6152
616 1 -10.198 2.91811 6.11601 -4.53552
617 1 -7.71455 0.163695 6.00021 -4.5355
618 1 -7.62562 2.66466 3.1568 -4.57178
619 1 -8.98384 1.49902 4.68733 -4.54764
620 1 -8.8601 3.9795 7.74861 -4.57179
621 1 -6.26377 1.35896 7.5761 -4.57252
622 1 -6.42633 3.91652 4.76655 -4.56168
623 1 -4.94348 0.197826 3.16847 -4.53096
624 1 -4.90165 2.7469 6.28954 -4.58365
625 1 -2.35488 0.0160812 6.32045 -4.55206
626 1 -2.36246 2.88667 3.41259 -4.56582
627 1 -3.63019 1.36422 4.68835 -4.54982
628 1 -3.70368 4.15602 7.75783 -4.5669
629 1 -1.14139 1.47737 7.73941 -4.58402
630 1 -1.10663 4.27551 4.95161 -4.54014
631 1 0.0890476 0.307365 3.25798 -4.5763
632 1 0.119022 2.75341 6.21892 -4.567
633 1 3.036 0.518306 6.15186 -4.5365
634 1 2.8324 2.87384 3.21629 -4.58241
635 1 1.50003 1.55913 4.6668 -4.56165
636 1 1.53844 4.1307 7.68107 -4.5884
637 1 4.17955 1.69809 7.79242 -4.53661
638 1 4.09419 4.22312 4.78463 -4.55908
639 1 5.11613 0.131664 3.17623 -4.58768
640 1 5.471 2.98978 6.22561 -4.5721
641 1 7.82085 0.302422 5.95875 -4.51304
642 1 7.87921 2.94749 3.19772 -4.53282
643 1 6.5044 1.59657 4.48943 -4.58054
644 1 6.77635 4.33843 7.65768 -4.52001
645 1 9.12482 1.59118 7.68812 -4.52184
646 1 9.23045 4.21272 4.78532 -4.49697
647 1 10.346 0.183305 2.87126 -4.5593
648 1 10.5496 2.85758 6.18129 -4.5015
649 1 12.6288 0.17505 6.07407 -4.48973
650 1 12.6704 3.04902 3.28743 -4.56382
651 1 11.4007 1.45059 4.56324 -4.48054
652 1 11.9013 4.09991 7.80777 -4.50109
653 1 13.9898 1.26657 7.83053 -4.48852
654 1 14.2349 4.0523 4.78082 -4.4947
655 1 15.1932 0.18862 3.17661 -4.53591
656 1 15.2167 2.64378 6.36727 -4.48698
657 1 17.6648 0.0402687 5.22363 -4.72135
658 1 17.5189 2.43304 2.59192 -4.53364
659 1 16.3364 1.73639 4.53708 -4.5279
660 1 16.6847 4.13648 7.39657 -4.42496
661 1 19.1971 1.53614 6.0605 -3.66675
662 1 19.0832 3.69099 3.72314 -4.55102
663 1 20.3595 1.57821 3.93122 -4.30531
664 1 -18.8958 6.34665 7.11247 -4.3051
665 1 -17.5094 8.1946 3.37084 -3.38906
666 1 -18.2585 6.21742 4.61542 -4.15595
667 1 -16.7242 7.01282 7.4915 -4.72843
668 1 -16.7275 9.84563 4.87102 -4.5395
669 1 -15.5952 5.18962 3.05921 -4.14954
670 1 -15.3516 8.24859 5.94192 -4.54658
671 1 -12.8064 5.47797 5.85164 -4.53599
672 1 -12.8993 7.9366 3.16948 -4.51965
673 1 -14.3932 6.61356 4.47157 -4.58116
674 1 -14.0552 9.17408 7.72285 -4.64957
675 1 -11.4934 6.38046 7.60644 -4.55003
676 1 -11.6329 8.96953 4.9383 -4.41439
677 1 -10.4038 5.31855 3.02932 -4.57135
678 1 -10.2015 7.85835 6.24048 -4.58367
679 1 -7.63262 5.3503 6.25335 -4.54357
680 1 -7.69681 7.75237 3.18023 -4.56896
681 1 -9.09417 6.53068 4.62769 -4.54323
682 1 -8.66937 9.0363 7.64097 -4.53422
683 1 -6.4873 6.50643 7.95503 -4.5372
684 1 -6.31381 8.92449 4.75351 -4.52866
685 1 -5.03647 5.35659 3.33014 -4.56255
686 1 -5.14009 7.72018 6.40424 -4.52102
687 1 -2.40215 5.60447 6.33841 -4.53847
688 1 -2.55061 8.09383 3.17315 -4.53197
689 1 -3.78699 6.74118 4.75974 -4.54745
690 1 -3.79769 9.12258 7.64626 -4.55721
691 1 -1.15057 6.79319 7.85251 -4.5655
692 1 -1.28823 9.32949 4.82139 -4.56885
693 1 0.183569 5.2927 3.24949 -4.53907
694 1 0.147197 7.91713 6.23001 -4.56946
695 1 2.83565 5.54464 6.34645 -4.56453
696 1 2.68308 8.16449 3.27612 -4.61258
697 1 1.45716 6.65577 4.62327 -4.53357
698 1 1.20845 9.48424 7.66826 -4.54592
699 1 3.91162 6.9097 7.9501 -4.554
700 1 4.13379 9.44164 4.63911 -4.49516
701 1 5.28744 5.60927 3.20277 -4.60849
702 1 5.21734 7.93342 6.20189 -4.49493
703 1 7.98235 5.66912 6.14403 -4.54146
704 1 7.89222 8.09672 2.77106 -4.48721
705 1 6.77354 6.90444 4.58358 -4.46054
706 1 6.58193 9.41412 7.61774 -4.44154
707 1 9.35656 6.97786 7.71133 -4.36926
708 1 9.05267 9.3246 4.3689 -4.61196
709 1 10.1314 5.44599 2.94796 -4.5314
710 1 10.5903 8.18301 5.78828 -4.30668
711 1 12.9146 5.41138 6.12938 -4.49405
712 1 12.832 7.88537 2.80571 -4.52762
713 1 11.5419 6.65319 4.35768 -4.50591
714 1 12.1171 9.73347 8.51861 -4.43795
715 1 14.3516 6.62578 7.69301 -4.37181
716 1 13.9556 8.80878 4.66523 -4.32438
717 1 15.4099 5.5457 3.06387 -4.11348
718 1 15.569 8.10413 6.23421 -4.80916
719 1 17.6701 4.82912 5.26295 -4.1566
720 1 18.7686 7.41081 3.31942 -4.05052
721 1 16.717 6.96119 4.4863 -5.20028
722 1 16.8658 9.87398 8.42143 -3.57914
723 1 18.843 6.86139 5.79043 -4.10078
724 1 -15.7747 11.6494 6.37724 -4.03089
725 1 -15.3765 10.784 3.10781 -4.44444
726 1 -15.0126 13.6123 5.16981 -4.25583
727 1 -12.5159 10.3849 6.44628 -4.43866
728 1 -12.1253 12.6484 3.70396 -3.95169
729 1 -13.811 11.4519 4.82802 -5.00223
730 1 -13.1744 14.6524 6.11621 -4.05048
731 1 -11.1347 11.8473 7.64484 -4.57137
732 1 -11.2387 14.6165 4.82374 -5.41858
733 1 -10.0167 10.0024 3.54913 -4.49543
734 1 -9.75721 13.1856 6.14842 -4.36607
735 1 -7.3131 10.5458 6.2225 -4.55218
736 1 -7.81326 12.9118 2.9202 -4.54701
737 1 -8.71097 11.5748 4.60687 -4.5127
738 1 -8.35633 14.651 7.24925 -4.54073
739 1 -6.22197 11.9839 7.74105 -4.48782
740 1 -6.33881 14.5418 3.90842 -4.61387
741 1 -5.14055 10.4213 3.25664 -4.54355
742 1 -5.5419 13.4258 5.82671 -4.45075
743 1 -2.65579 10.6715 6.23427 -4.56011