ITEM: TIMESTEP
44000
ITEM: NUMBER OF ATOMS
4050
ITEM: BOX BOUNDS ss ss pp
-2.1376001181789867e+01 2.1438334398200212e+01
-2.1677977937810692e+01 2.1500088082024774e+01
-5.9741000000000011e-01 5.4907409999999999e+01
ITEM: ATOMS id type x y z c_peratom
1 1 -12.3211 -15.8455 1.29254 -3.78825
2 1 -8.26532 -18.5659 0.147997 -4.52146
3 1 -9.25616 -17.6446 2.98464 -4.45076
4 1 -7.89377 -19.6021 2.298 -4.3622
5 1 -6.55108 -17.163 0.807694 -4.72508
6 1 -5.67086 -18.825 2.1794 -4.5155
7 1 -2.93399 -18.9932 -0.473168 -4.56763
8 1 -5.13247 -19.6764 -0.101402 -3.7867
9 1 -4.07594 -17.6877 3.74266 -4.35955
10 1 -0.883273 -19.9468 3.93147 -4.34465
11 1 -1.85969 -17.1085 0.521719 -4.435
12 1 0.224068 -20.1431 1.0191 -4.68205
13 1 -0.568441 -18.429 2.22951 -4.55396
14 1 3.56491 -18.3325 54.7142 -4.53812
15 1 2.41344 -19.634 0.714534 -3.8218
16 1 1.33969 -17.251 3.28007 -4.59102
17 1 3.21528 -20.0986 2.80115 -4.44823
18 1 4.02314 -16.8831 0.915164 -4.63416
19 1 5.12887 -18.7077 1.88972 -4.41225
20 1 7.82276 -18.5751 0.173582 -3.65784
21 1 9.78158 -18.9144 2.31565 -3.74385
22 1 6.57984 -17.1911 3.16107 -4.52553
23 1 9.59733 -16.9093 0.993817 -4.88716
24 1 11.5018 -17.2278 2.60241 -4.23627
25 1 -15.4112 -12.8395 1.2056 -4.02311
26 1 -16.0251 -14.0162 3.27176 -4.07022
27 1 -14.2282 -15.5152 2.77398 -4.49202
28 1 -12.8955 -13.339 54.88 -4.48254
29 1 -14.3779 -14.8731 0.452216 -4.33517
30 1 -14.8509 -12.0002 3.40296 -4.7021
31 1 -11.96 -14.4614 3.30119 -5.11153
32 1 -11.855 -11.9012 0.833387 -4.56106
33 1 -10.644 -16.2562 -0.442481 -4.3082
34 1 -10.3169 -13.2867 1.95496 -4.33455
35 1 -7.84208 -15.8737 2.19419 -4.63867
36 1 -7.80765 -13.1899 54.9606 -4.61707
37 1 -9.11896 -14.6947 0.620115 -4.59297
38 1 -9.17553 -12.0762 3.52469 -4.5711
39 1 -6.49573 -14.6925 3.6737 -4.55097
40 1 -6.58656 -11.9024 0.956469 -4.53795
41 1 -5.18823 -16.0472 54.653 -4.53589
42 1 -5.32503 -13.3933 2.04019 -4.53906
43 1 -2.9319 -15.9944 2.31503 -4.50863
44 1 -2.44101 -13.333 -0.646248 -4.56857
45 1 -3.89879 -14.6684 0.645317 -4.59127
46 1 -4.01443 -12.0711 3.43028 -4.62438
47 1 -1.31891 -14.8038 3.52926 -4.62052
48 1 -1.2919 -11.9293 0.756687 -4.58982
49 1 0.239835 -16.3309 -0.568868 -4.46659
50 1 -0.0690484 -13.2875 2.16486 -4.56984
51 1 2.45251 -15.5222 2.15717 -4.52452
52 1 2.66162 -13.1468 -0.703811 -4.59861
53 1 1.15974 -14.5014 0.574538 -4.57992
54 1 1.24549 -12.1429 3.70975 -4.5615
55 1 4.06706 -14.5005 3.56463 -4.58249
56 1 3.66021 -11.6464 0.766802 -4.52884
57 1 5.50675 -15.8417 -0.533975 -4.62616
58 1 5.01171 -12.8442 2.33637 -4.51859
59 1 7.89936 -15.6053 2.0804 -4.47893
60 1 7.8807 -13.0349 55.1166 -4.52323
61 1 6.39582 -14.178 0.918058 -4.58072
62 1 6.44762 -11.8699 3.79163 -4.53796
63 1 9.26045 -14.9119 3.79514 -4.52563
64 1 9.07659 -11.7175 0.904804 -4.53055
65 1 10.8932 -15.6432 54.9429 -4.45199
66 1 10.242 -13.1914 2.43625 -4.55429
67 1 13.2356 -15.9232 1.54913 -4.46862
68 1 13.0761 -12.7985 -0.355983 -4.37325
69 1 11.8133 -14.2197 1.00983 -4.73379
70 1 11.7101 -11.6998 3.56005 -4.61664
71 1 14.4162 -14.3785 2.78622 -3.76777
72 1 14.5589 -11.8592 1.18841 -4.75824
73 1 16.1982 -13.4959 1.67801 -4.40015
74 1 17.0419 -11.4262 2.73495 -3.82469
75 1 -18.2422 -8.03859 54.4308 -3.73981
76 1 -19.7372 -5.02657 4.20937 -4.38375
77 1 -17.3455 -8.7721 3.87931 -3.76987
78 1 -17.7501 -6.61674 0.717675 -4.56069
79 1 -15.945 -11.104 55.0649 -4.2323
80 1 -16.1835 -7.81754 2.02166 -4.62973
81 1 -13.3755 -10.4884 2.04119 -4.39022
82 1 -13.4204 -7.90042 -0.639436 -4.56961
83 1 -14.9065 -9.30229 0.695821 -4.58189
84 1 -14.8317 -6.58775 3.52988 -4.57724
85 1 -11.9155 -9.36612 3.51771 -4.5655
86 1 -11.9691 -6.52095 0.708625 -4.55814
87 1 -10.488 -10.8017 -0.642866 -4.57719
88 1 -10.6589 -7.91197 2.07641 -4.58886
89 1 -7.967 -10.5015 2.18691 -4.59878
90 1 -7.9851 -8.07661 55.0704 -4.59126
91 1 -9.41364 -9.41028 0.808186 -4.56704
92 1 -9.44569 -6.4683 3.43133 -4.58602
93 1 -6.70371 -9.22318 3.72085 -4.61677
94 1 -6.9634 -6.53394 0.952354 -4.56347
95 1 -5.21751 -10.7089 54.9529 -4.62205
96 1 -5.4808 -7.98339 2.12629 -4.61592
97 1 -2.55423 -10.6643 2.33766 -4.59962
98 1 -2.68206 -8.05094 54.887 -4.53381
99 1 -3.99647 -9.41377 0.900251 -4.60089
100 1 -4.24342 -6.43458 3.53505 -4.57409
101 1 -1.35584 -9.19238 3.77082 -4.60871
102 1 -1.43832 -6.64098 0.84487 -4.59836
103 1 0.128919 -10.6149 54.9888 -4.59576
104 1 -0.11788 -7.9013 2.23445 -4.60959
105 1 2.47337 -10.5975 2.40769 -4.55616
106 1 2.58417 -7.65384 -0.661766 -4.57468
107 1 1.28847 -9.20423 0.840588 -4.52958
108 1 1.11126 -6.58151 3.78563 -4.60512
109 1 4.0229 -9.05361 3.49214 -4.57883
110 1 3.84541 -6.35914 0.884205 -4.60035
111 1 5.22746 -10.361 55.1096 -4.58865
112 1 5.38644 -7.63252 2.17399 -4.60463
113 1 7.74903 -10.4572 2.34234 -4.59368
114 1 8.20564 -7.66316 -0.602679 -4.55023
115 1 6.71353 -8.93356 0.754203 -4.6008
116 1 6.87602 -6.21345 3.53832 -4.60154
117 1 9.26786 -9.23427 3.5903 -4.58201
118 1 9.38867 -6.33169 0.943887 -4.59002
119 1 10.6069 -10.5435 -0.374418 -4.55361
120 1 10.5911 -7.72198 2.347 -4.58788
121 1 13.3084 -10.3992 2.38622 -4.47365
122 1 13.2887 -7.77653 -0.439767 -4.56351
123 1 11.9797 -9.1597 0.899073 -4.61698
124 1 12.1339 -6.55009 3.66469 -4.59433
125 1 14.8298 -9.02323 3.5456 -4.63711
126 1 14.6132 -6.44562 0.831168 -4.57311
127 1 15.8959 -10.8812 -0.587769 -4.45477
128 1 16.1273 -7.84809 2.12388 -4.5121
129 1 18.331 -8.22791 -0.478168 -3.4662
130 1 17.1154 -9.69456 1.10478 -4.59854
131 1 17.3838 -6.29423 3.31066 -4.62634
132 1 19.2076 -6.0532 -0.0849696 -3.55536
133 1 -19.1343 -4.9465 1.86327 -4.20003
134 1 -18.6157 -2.10409 54.6594 -5.04488
135 1 -20.0657 -3.05289 0.890843 -3.39133
136 1 -20.3658 -1.42165 4.16987 -4.398
137 1 -17.5231 -4.1206 3.50636 -4.91376
138 1 -17.3683 -1.05718 0.778051 -4.43293
139 1 -16.3599 -5.30894 54.8355 -4.59698
140 1 -16.3099 -2.76829 2.0301 -4.31063
141 1 -13.4547 -5.29995 2.12841 -4.6183
142 1 -13.3178 -2.69699 -0.722635 -4.58326
143 1 -14.8602 -3.96407 0.687966 -4.5731
144 1 -14.9712 -1.30756 3.41648 -4.55586
145 1 -12.2313 -3.89577 3.5543 -4.5994
146 1 -11.9518 -1.19585 0.553197 -4.58563
147 1 -10.6403 -5.42909 54.786 -4.55197
148 1 -10.7694 -2.54047 2.15929 -4.59283
149 1 -8.06547 -5.02356 2.32764 -4.52217
150 1 -8.3067 -2.62983 -0.68967 -4.59711
151 1 -9.43621 -4.00137 0.806095 -4.58311
152 1 -9.56797 -1.01169 3.61367 -4.57086
153 1 -6.76604 -3.70813 3.69041 -4.56088
154 1 -6.88089 -1.40856 0.717024 -4.57565
155 1 -5.51269 -5.31613 -0.376983 -4.53952
156 1 -5.40834 -2.50712 2.25017 -4.62704
157 1 -2.87579 -5.25233 2.20122 -4.56384
158 1 -2.94672 -2.48057 -0.54496 -4.57452
159 1 -4.22277 -3.91199 0.830447 -4.60392
160 1 -4.04582 -1.10451 3.60939 -4.52216
161 1 -1.45238 -3.75446 3.55948 -4.56656
162 1 -1.39331 -1.18333 0.655777 -4.57935
163 1 -0.142601 -5.25458 -0.470772 -4.55946
164 1 -0.0162565 -2.43183 2.20277 -4.61609
165 1 2.52207 -5.23827 2.42258 -4.58657
166 1 2.65174 -2.5724 -0.477684 -4.54464
167 1 1.29152 -3.91602 0.844675 -4.60987
168 1 1.44123 -1.17702 3.63442 -4.61214
169 1 4.01867 -3.79464 3.47576 -4.58206
170 1 4.05042 -1.07671 0.60901 -4.57563
171 1 5.32253 -5.20229 -0.581388 -4.59989
172 1 5.36241 -2.15801 2.26406 -4.55932
173 1 8.01555 -4.7992 2.01625 -4.6002
174 1 8.00145 -2.32754 -0.748725 -4.62484
175 1 6.55478 -3.59301 0.676917 -4.59997
176 1 6.80844 -1.02408 3.74323 -4.58384
177 1 9.44162 -3.75159 3.55185 -4.60334
178 1 9.12981 -1.0344 0.878678 -4.59097
179 1 10.7986 -5.07161 54.9651 -4.6049
180 1 10.6467 -2.33806 2.18636 -4.62329
181 1 13.1179 -5.11228 2.0861 -4.56932
182 1 13.482 -2.39064 54.8716 -4.57705
183 1 12.0371 -3.63897 0.731627 -4.56321
184 1 12.0666 -1.09192 3.60808 -4.62148
185 1 14.6093 -3.93457 3.51439 -4.59776
186 1 14.7374 -1.13732 0.859348 -4.55373
187 1 16.0497 -5.03167 54.9952 -4.41819
188 1 16.0487 -2.45749 2.35495 -4.50839
189 1 18.9392 -4.99997 1.97084 -4.62753
190 1 19.0196 -2.60228 54.7586 -4.58624
191 1 17.4915 -3.57859 0.70975 -4.65919
192 1 17.3521 -0.885364 3.44509 -4.66664
193 1 19.9223 -2.85698 2.30649 -3.79915
194 1 20.117 -1.13698 0.671398 -4.17455
195 1 -20.6475 -1.06603 -0.210596 -4.47522
196 1 -19.7548 0.767548 3.24488 -4.23732
197 1 -18.7117 2.61904 -0.318125 -4.308
198 1 -19.1581 0.44566 0.937567 -4.38484
199 1 -19.6595 5.04241 4.2334 -3.58945
200 1 -17.6013 1.53533 3.97435 -4.52539
201 1 -17.5067 3.97567 1.22234 -4.33794
202 1 -16.0583 0.286539 54.9003 -4.65411
203 1 -16.1614 2.641 2.41966 -4.52056
204 1 -13.3735 -0.105238 2.14383 -4.56645
205 1 -13.6264 2.80865 -0.621763 -4.56356
206 1 -14.7406 1.49403 0.952028 -4.5868
207 1 -14.8635 4.25229 3.64108 -4.60043
208 1 -12.2397 1.50696 3.60149 -4.5202
209 1 -12.0959 3.94424 0.776773 -4.60595
210 1 -10.6216 0.236687 54.7819 -4.61789
211 1 -10.6878 2.53421 2.15039 -4.59556
212 1 -7.96872 0.0727282 2.23927 -4.59907
213 1 -7.94947 2.8881 -0.731429 -4.61085
214 1 -9.13812 1.45085 0.671713 -4.59349
215 1 -9.53855 3.98569 3.59677 -4.56739
216 1 -6.68095 1.58063 3.61066 -4.57107
217 1 -6.61422 3.98869 0.808977 -4.57681
218 1 -5.49471 0.121921 -0.412713 -4.57289
219 1 -5.20835 2.96171 2.34581 -4.581
220 1 -2.65655 0.147444 2.03977 -4.57794
221 1 -2.62735 2.79298 -0.708541 -4.61415
222 1 -4.04558 1.63613 0.850744 -4.60186
223 1 -3.746 4.17516 3.71161 -4.56341
224 1 -1.32717 1.29341 3.53769 -4.5865
225 1 -1.12744 3.91677 0.742808 -4.5447
226 1 0.0864001 0.0409227 -0.586364 -4.58365
227 1 0.186532 2.64004 2.37794 -4.5488
228 1 2.70642 0.128088 2.1421 -4.60904
229 1 2.75473 2.89578 55.0901 -4.59152
230 1 1.33575 1.4197 0.776135 -4.60863
231 1 1.4608 3.98161 3.73165 -4.57933
232 1 4.12249 1.54731 3.56052 -4.5599
233 1 4.20226 4.21062 0.976359 -4.62411
234 1 5.60202 0.40367 -0.586332 -4.53053
235 1 5.62348 2.93294 2.37096 -4.61838
236 1 8.10385 0.380818 2.395 -4.58585
237 1 8.34066 3.0926 -0.474127 -4.54174
238 1 6.96861 1.7122 0.804276 -4.5936
239 1 7.03642 4.37201 3.66183 -4.59444
240 1 9.55235 1.63965 3.74454 -4.61517
241 1 9.54654 4.36223 1.01876 -4.56512
242 1 10.6084 0.135248 55.006 -4.56634
243 1 10.8847 2.90673 2.28494 -4.60696
244 1 13.495 0.30237 2.28908 -4.59556
245 1 13.4945 2.92447 -0.364764 -4.60824
246 1 12.1189 1.47099 0.918741 -4.57106
247 1 12.3572 4.39665 3.50196 -4.60058
248 1 15.0092 1.74578 3.51268 -4.60195
249 1 14.9231 4.38235 0.85465 -4.58965
250 1 15.7287 0.156799 -0.660931 -4.5305
251 1 16.3944 3.05214 2.10058 -4.38375
252 1 18.8016 0.247142 2.01151 -4.54528
253 1 18.357 2.21444 54.1661 -4.48207
254 1 17.229 1.49933 0.621722 -4.54893
255 1 17.6573 4.52048 3.57437 -4.833
256 1 20.2025 1.07408 3.74732 -4.31137
257 1 20.0352 3.58909 -0.462081 -4.33373
258 1 20.4253 1.22902 54.5407 -3.72319
259 1 -18.6157 5.75171 2.2232 -4.45873
260 1 -18.4864 8.3336 53.8584 -4.56984
261 1 -18.8962 6.47377 -0.1851 -4.17406
262 1 -17.0931 7.04195 3.5163 -4.67655
263 1 -17.2675 9.44694 0.199577 -3.51614
264 1 -16.6283 5.40529 -0.462914 -5.3278
265 1 -15.9344 8.42314 1.9716 -4.58186
266 1 -13.4428 5.45891 2.07591 -4.58557
267 1 -13.5546 7.98388 54.8144 -4.5287
268 1 -14.8816 6.77211 0.748583 -4.34604
269 1 -14.6451 9.63978 3.50505 -4.52959
270 1 -12.0224 6.89777 3.43293 -4.60761
271 1 -11.9108 9.24833 0.642465 -4.54802
272 1 -10.8852 5.40081 -0.529086 -4.57473
273 1 -10.4457 8.18825 2.16405 -4.62453
274 1 -8.20301 5.16267 2.1178 -4.61486
275 1 -7.90908 8.0182 -0.518218 -4.58437
276 1 -9.35662 6.64171 0.693291 -4.61363
277 1 -9.14983 9.67786 3.55533 -4.56662
278 1 -6.76394 6.66932 3.34243 -4.57067
279 1 -6.52959 9.39456 0.716779 -4.58774
280 1 -5.30294 5.32998 -0.536546 -4.58102
281 1 -5.3689 8.04688 2.13531 -4.55477
282 1 -2.51095 5.29 2.08335 -4.61184
283 1 -2.51546 8.10333 -0.347956 -4.56758
284 1 -3.89907 6.66333 0.862799 -4.61236
285 1 -3.92189 9.37171 3.4442 -4.55022
286 1 -1.35878 6.75613 3.48689 -4.62523
287 1 -1.02253 9.49793 0.793676 -4.6028
288 1 -0.0531269 5.43977 54.9943 -4.58527
289 1 0.205361 7.97181 2.19015 -4.63866
290 1 2.71513 5.41628 2.34604 -4.60352
291 1 2.71386 8.21077 -0.28685 -4.56192
292 1 1.49548 6.62797 0.816779 -4.5516
293 1 1.49517 9.29186 3.54673 -4.57563
294 1 4.255 6.8454 3.53994 -4.57989
295 1 4.13916 9.8419 0.813065 -4.57885
296 1 5.49929 5.47103 -0.450796 -4.58295
297 1 5.35733 8.38974 2.09638 -4.5898
298 1 8.21694 5.8116 2.26557 -4.59601
299 1 8.10797 8.23181 -0.63371 -4.58821
300 1 6.83876 7.09174 0.852103 -4.56414
301 1 6.73335 9.71709 3.36887 -4.56613
302 1 9.56273 7.10354 3.83282 -4.51522
303 1 9.29539 9.69061 0.828021 -4.57744
304 1 10.8113 5.58747 -0.461231 -4.5936
305 1 10.9061 8.51124 2.09586 -4.29063
306 1 13.6096 5.85401 2.05301 -4.58294
307 1 13.5415 8.04506 54.6161 -4.39044
308 1 12.1366 7.11109 0.750318 -4.59645
309 1 12.4223 9.98638 3.4297 -4.86472
310 1 14.7916 7.31927 3.37588 -4.43003
311 1 15.2399 9.24334 0.315758 -4.6898
312 1 16.2247 5.50739 54.8151 -4.46482
313 1 16.6347 8.2401 2.04338 -4.77673
314 1 19.1224 4.67895 1.56574 -4.05042
315 1 18.8588 7.08764 54.1196 -3.8088
316 1 17.8357 6.47598 0.65202 -4.50632
317 1 17.4988 8.95849 4.18693 -3.55178
318 1 19.8433 5.60141 3.63506 -4.16055
319 1 -16.3532 13.3257 4.55025 -4.22888
320 1 -15.7879 11.111 -0.476 -4.68536
321 1 -15.6063 13.8873 2.28085 -4.13315
322 1 -13.0569 10.6985 2.19209 -4.55544
323 1 -13.4008 13.3074 55.1275 -4.73367
324 1 -14.5657 12.1767 1.25489 -4.55434
325 1 -14.0919 14.3623 4.1444 -4.75526
326 1 -11.986 12.1008 3.64481 -4.47105
327 1 -12.3039 14.8948 0.895652 -4.65853
328 1 -10.6618 10.8983 -0.613358 -4.62325
329 1 -10.8152 13.4122 2.03937 -4.41837
330 1 -7.97141 10.8871 1.87253 -4.58979
331 1 -7.83472 13.5406 54.7906 -4.62452
332 1 -9.36083 12.3617 0.660773 -4.53807
333 1 -9.36418 14.4805 3.36953 -4.48295
334 1 -6.59441 11.9381 3.49369 -4.61771
335 1 -6.40647 14.6917 0.716546 -4.55066
336 1 -5.28093 10.8383 54.8386 -4.563
337 1 -5.29222 13.2168 2.07463 -4.56547
338 1 -2.35439 10.6661 2.35536 -4.57666
339 1 -2.44943 13.2129 54.8687 -4.55761
340 1 -3.7276 11.8268 0.871329 -4.60962
341 1 -3.99953 14.5556 3.6447 -4.58871
342 1 -1.19971 12.1711 3.76149 -4.61146
343 1 -1.35778 14.5448 0.842806 -4.54798
344 1 0.267302 10.8696 -0.645335 -4.61156
345 1 0.198064 13.4993 2.32935 -4.62627
346 1 2.75199 10.8745 2.38328 -4.57072
347 1 2.9368 13.5601 -0.38918 -4.54911
348 1 1.54837 12.1849 0.909255 -4.60164
349 1 1.52503 14.7415 3.82715 -4.60511
350 1 4.22285 12.1975 3.66217 -4.60864
351 1 4.29969 14.6284 1.15132 -4.51112
352 1 5.72115 10.9887 55.0264 -4.52246
353 1 5.83789 13.6113 2.61483 -4.41707
354 1 8.00673 11.1766 2.12684 -4.59031
355 1 8.40205 13.6127 54.9185 -4.41217
356 1 6.78911 12.5852 0.771606 -4.50564
357 1 6.85416 15.2062 4.07142 -4.52783
358 1 9.39237 12.3741 3.62715 -4.40412
359 1 9.57575 15.1246 0.782199 -4.78419
360 1 10.656 10.6108 54.5901 -4.42609
361 1 10.8745 13.5806 2.01733 -4.65255
362 1 13.3598 10.4576 1.15498 -4.25203
363 1 13.3391 13.1621 54.0157 -4.30015
364 1 11.9762 12.214 0.233918 -4.81459
365 1 11.6644 14.6444 3.98185 -4.29427
366 1 14.1743 11.5197 4.22205 -4.36452
367 1 13.8893 13.6811 0.714754 -4.25306
368 1 16.6835 10.7844 54.534 -4.3255
369 1 14.9676 12.0019 2.01977 -4.69063
370 1 16.7728 10.5785 1.40435 -4.07926
371 1 -14.0675 15.7943 2.17127 -4.20713
372 1 -12.8827 16.4827 4.25385 -4.2233
373 1 -10.2494 16.8487 54.7745 -4.38722
374 1 -8.04054 15.7726 1.89537 -4.55315
375 1 -8.82991 18.7227 -0.283011 -4.21607
376 1 -9.62552 17.3127 1.47938 -4.34074
377 1 -6.77407 16.8408 3.47082 -4.69722
378 1 -8.16344 19.2778 1.91742 -4.23967
379 1 -5.34779 16.1823 54.8081 -4.50826
380 1 -5.8261 18.5417 2.03616 -4.64391
381 1 -2.69817 15.8852 2.28376 -4.51789
382 1 -2.63169 18.6781 -0.379785 -4.69295
383 1 -4.11809 17.3348 0.853534 -4.5124
384 1 -4.70923 19.1808 4.00917 -3.64111
385 1 -1.64394 17.1597 3.85619 -4.40561
386 1 -0.92759 19.557 1.01699 -3.69594
387 1 0.138126 15.8167 -0.459896 -4.57175
388 1 0.105882 18.2815 2.71758 -4.76545
389 1 2.82811 16.0806 2.33239 -4.61062
390 1 2.74427 18.8437 0.1442 -4.4516
391 1 1.26777 17.2002 1.00928 -4.60195
392 1 1.36259 19.9569 3.72532 -4.60092
393 1 3.83546 17.5503 3.80139 -4.62981
394 1 2.88038 20.521 1.94148 -4.36379
395 1 5.298 15.9661 54.9116 -4.48268
396 1 4.90891 19.2482 2.60691 -4.29278
397 1 8.1014 16.89 1.45984 -4.46219
398 1 9.35649 18.3638 0.0968786 -4.31784
399 1 6.14951 17.8649 0.495178 -4.19087
400 1 5.53471 20.2378 4.64605 -3.66188
401 1 8.52807 16.9189 3.79826 -4.59277
402 1 10.7058 15.7208 54.2075 -4.2756
403 1 12.5732 15.3674 1.87643 -4.27087
404 1 11.273 16.9559 0.63434 -4.23505
405 1 1.07557 20.6248 0.207566 -4.34464
406 1 -12.7269 -16.3963 4.62422 -4.06203
407 1 -7.95893 -18.7572 4.59285 -3.49191
408 1 -9.4493 -17.3066 9.27447 -3.71145
409 1 -5.78112 -19.5969 10.2026 -3.82107
410 1 -6.57267 -17.6404 6.35004 -4.48138
411 1 -5.21529 -18.8842 8.00476 -4.64101
412 1 -2.57187 -18.8697 5.26854 -4.52771
413 1 -3.14368 -19.7446 7.36296 -3.5761
414 1 -4.13858 -17.2067 9.09107 -4.65793
415 1 -1.48062 -19.6239 9.10898 -4.60109
416 1 -1.25892 -17.2741 6.40916 -4.69904
417 1 1.01789 -21.0347 3.16774 -4.02685
418 1 0.177461 -18.7457 7.55261 -4.48492
419 1 2.71763 -18.5647 4.6439 -4.54168
420 1 0.990905 -19.7762 5.49439 -4.19434
421 1 1.50487 -17.226 8.90015 -4.49305
422 1 5.25594 -19.4263 9.58874 -3.96917
423 1 4.24656 -17.4544 6.2474 -4.42598
424 1 5.88373 -18.4499 7.58583 -4.68298
425 1 8.28345 -18.3966 4.09636 -4.53927
426 1 7.76679 -19.2056 6.30262 -3.45637
427 1 6.76521 -16.7683 8.78613 -4.6771
428 1 9.26904 -17.3391 5.92556 -4.37273
429 1 13.1579 -16.3051 9.59161 -4.13994
430 1 -17.5618 -10.8605 6.9392 -3.6907
431 1 -16.0785 -12.6553 7.20399 -3.81152
432 1 -13.4627 -15.02 6.5125 -4.17969
433 1 -13.4315 -13.2156 5.07282 -4.59952
434 1 -15.5706 -14.3314 5.61248 -4.32187
435 1 -14.5048 -11.952 8.76822 -4.70404
436 1 -12.0872 -14.6048 8.54315 -4.46197
437 1 -11.9081 -11.787 6.21446 -4.49191
438 1 -10.4297 -15.9308 4.36089 -4.09638
439 1 -10.5456 -13.1465 7.64172 -4.59621
440 1 -8.13279 -16.2864 7.55386 -4.62223
441 1 -8.02369 -13.4458 5.04967 -4.61376
442 1 -9.42327 -14.9108 6.29671 -4.47865
443 1 -9.25235 -11.8504 9.16218 -4.50507
444 1 -6.85693 -14.7085 8.71066 -4.60155
445 1 -6.86304 -11.9173 6.3467 -4.60653
446 1 -5.30629 -16.2496 5.02347 -4.61507
447 1 -5.37074 -13.2825 7.58373 -4.58437
448 1 -2.58811 -15.9528 7.8521 -4.57768
449 1 -2.6707 -13.4326 4.88168 -4.61558
450 1 -4.06464 -14.7467 6.3431 -4.61253
451 1 -3.78307 -11.9915 8.72891 -4.56165
452 1 -1.14482 -14.638 9.15575 -4.6093
453 1 -1.50619 -11.8483 6.12885 -4.57895
454 1 0.154237 -16.0275 4.89344 -4.61742
455 1 -0.148671 -13.1299 7.59773 -4.58284
456 1 2.80176 -16.0122 7.47992 -4.58217
457 1 2.82449 -13.1576 5.10426 -4.61447
458 1 1.37267 -14.4896 6.32536 -4.5908
459 1 1.33715 -11.9987 9.01905 -4.57029
460 1 3.84813 -14.6814 9.02269 -4.54939
461 1 4.19308 -11.5792 6.3155 -4.59008
462 1 5.42857 -16.0346 4.87207 -4.57116
463 1 5.21894 -13.1427 7.7233 -4.57607
464 1 8.03332 -15.6729 7.31286 -4.54881
465 1 8.18725 -13.1428 4.90619 -4.55106
466 1 6.55645 -14.3467 6.10322 -4.62858
467 1 6.52874 -11.7098 9.14958 -4.55887
468 1 9.31251 -14.5158 8.87582 -4.59655
469 1 9.28045 -11.6766 6.42516 -4.60578
470 1 10.9677 -16.188 4.80847 -4.4018
471 1 10.7409 -13.1882 7.45674 -4.56385
472 1 14.0857 -15.4078 7.44933 -4.16236
473 1 13.4071 -13.1387 4.55396 -4.65572
474 1 12.1685 -14.5397 6.10912 -4.50324
475 1 11.777 -11.8964 9.1046 -4.44037
476 1 14.0705 -14.1086 9.48223 -4.68332
477 1 14.5725 -11.8556 6.23375 -4.54323
478 1 15.6588 -13.57 7.41948 -4.11086
479 1 16.2073 -13.0455 9.70569 -4.10264
480 1 -18.6979 -7.11371 4.81593 -3.79001
481 1 -19.3312 -6.32793 9.90138 -3.47138
482 1 -17.0573 -9.46935 8.68155 -4.70473
483 1 -17.2716 -6.45632 6.54315 -4.69492
484 1 -16.3425 -10.6455 4.86743 -4.5015
485 1 -15.7144 -7.83155 7.59693 -4.55548
486 1 -13.3174 -10.4688 7.50295 -4.62459
487 1 -13.3762 -8.0151 4.7944 -4.61856
488 1 -14.9101 -9.36613 6.04563 -4.56024
489 1 -14.7463 -6.499 9.23089 -4.57523
490 1 -12.1137 -9.21911 9.05123 -4.54906
491 1 -12.1973 -6.62672 6.37041 -4.57945
492 1 -10.4863 -10.4699 4.8651 -4.54254
493 1 -10.7462 -7.88695 7.75131 -4.61338
494 1 -8.02984 -10.4385 7.6997 -4.62312
495 1 -8.00107 -7.67936 4.81014 -4.55849
496 1 -9.27056 -8.98491 6.24609 -4.59416
497 1 -9.54865 -6.27825 9.12905 -4.57556
498 1 -6.53395 -9.12794 8.99202 -4.61899
499 1 -6.74354 -6.53993 6.3235 -4.59448
500 1 -5.39048 -10.7648 4.92283 -4.5621
501 1 -5.24911 -7.91063 7.48916 -4.57458
502 1 -2.55251 -10.3991 7.58614 -4.57118
503 1 -2.85087 -7.77687 4.8819 -4.595
504 1 -4.08253 -9.31152 6.10682 -4.56722
505 1 -4.14982 -6.46713 8.92581 -4.54328
506 1 -1.27806 -9.20164 9.30666 -4.5704
507 1 -1.36554 -6.57694 6.36518 -4.5682
508 1 0.0552073 -10.6318 5.00376 -4.59793
509 1 -0.0436964 -7.89026 7.78352 -4.61653
510 1 2.79656 -10.5061 7.89393 -4.59591
511 1 2.60426 -7.96924 5.00987 -4.62442
512 1 1.35109 -9.35139 6.4999 -4.60327
513 1 1.42645 -6.57467 9.11 -4.59838
514 1 4.3205 -9.10687 9.13542 -4.57115
515 1 4.03953 -6.56148 6.19553 -4.54664
516 1 5.4555 -10.1236 5.06294 -4.57788
517 1 5.46796 -7.57219 7.82002 -4.60033
518 1 7.8044 -10.4251 7.75206 -4.55534
519 1 8.24129 -7.53706 4.88765 -4.59979
520 1 6.88306 -8.78962 6.33564 -4.60485
521 1 6.88062 -6.44213 9.35053 -4.566
522 1 9.31046 -9.12173 9.06032 -4.61654
523 1 9.61805 -6.39157 6.32591 -4.569
524 1 10.6563 -10.2772 5.05671 -4.56369
525 1 10.8262 -7.85583 7.78439 -4.60336
526 1 13.3864 -10.662 7.8409 -4.53876
527 1 13.5498 -7.70874 5.12488 -4.55348
528 1 12.2731 -9.06099 6.47312 -4.55797
529 1 12.1702 -6.4837 9.0947 -4.60461
530 1 14.841 -9.25208 8.96216 -4.51196
531 1 15.0764 -6.36525 6.34644 -4.6112
532 1 16.0056 -10.6173 4.76706 -4.70594
533 1 16.2213 -7.79514 7.89176 -4.57715
534 1 18.5502 -7.41026 4.93049 -3.80999
535 1 17.2349 -9.03142 6.03774 -3.74953
536 1 17.7387 -6.46864 9.14071 -4.69295
537 1 19.5458 -5.38612 5.95523 -3.60634
538 1 -18.5573 -5.17782 7.93244 -4.53052
539 1 -18.2662 -2.23866 4.73076 -4.48188
540 1 -19.3552 -3.75438 6.14222 -4.39497
541 1 -20.7625 -1.68031 6.56774 -3.6972
542 1 -17.3193 -3.7863 9.31915 -4.60889
543 1 -17.4841 -0.793886 6.37297 -4.51161
544 1 -15.9833 -5.04664 5.09337 -4.45358
545 1 -16.2616 -2.26547 7.79185 -4.58279
546 1 -13.4888 -5.14035 7.72358 -4.5641
547 1 -13.638 -2.454 4.94683 -4.543
548 1 -14.8046 -3.57269 6.49547 -4.55119
549 1 -14.7939 -1.04006 9.10002 -4.58453
550 1 -12.4008 -3.70754 9.31561 -4.51837
551 1 -12.1501 -1.08157 6.32769 -4.62059
552 1 -10.7655 -5.2067 4.96559 -4.59073
553 1 -10.7533 -2.43024 7.738 -4.48935
554 1 -8.12143 -5.16388 7.68476 -4.58885
555 1 -8.09143 -2.18072 5.12442 -4.55806
556 1 -9.49511 -3.76288 6.27272 -4.60931
557 1 -9.38232 -1.06505 9.1534 -4.59155
558 1 -6.8738 -3.89025 9.23606 -4.58938
559 1 -6.59604 -1.23062 6.5992 -4.56113
560 1 -5.38502 -5.00227 5.04158 -4.61312
561 1 -5.37415 -2.6179 8.08517 -4.57237
562 1 -2.61022 -5.21237 7.71095 -4.61496
563 1 -2.74881 -2.59268 5.20785 -4.50756
564 1 -4.03777 -3.81486 6.5649 -4.54188
565 1 -3.99413 -1.31626 9.47112 -4.5949
566 1 -1.4252 -3.93143 9.32567 -4.56567
567 1 -1.25675 -1.14466 6.41477 -4.60836
568 1 -0.0717695 -4.99984 5.08979 -4.61615
569 1 -0.0942682 -2.59783 7.88373 -4.61666
570 1 2.75578 -5.24966 7.71846 -4.6264
571 1 2.71364 -2.62946 5.0621 -4.62736
572 1 1.29528 -3.80523 6.53858 -4.56898
573 1 1.23643 -1.11792 9.14538 -4.60082
574 1 3.97038 -3.83406 9.11181 -4.56402
575 1 4.18373 -1.33232 6.40086 -4.59721
576 1 5.27042 -5.14549 4.89151 -4.6087
577 1 5.437 -2.70399 7.79712 -4.57691
578 1 8.10229 -5.33499 7.64244 -4.54478
579 1 7.97018 -2.58883 4.97256 -4.53696
580 1 6.71992 -4.00574 6.34473 -4.60146
581 1 6.76769 -1.26477 9.18059 -4.62803
582 1 9.26364 -3.86521 9.0904 -4.59384
583 1 9.40713 -1.5344 6.32758 -4.53552
584 1 10.8912 -5.04034 4.89959 -4.61649
585 1 10.7738 -2.6035 7.84464 -4.58415
586 1 13.5833 -5.21257 7.72338 -4.63208
587 1 13.4149 -2.48242 4.89367 -4.58647
588 1 12.3089 -3.81207 6.37025 -4.58847
589 1 12.1377 -1.07038 9.02477 -4.62446
590 1 14.9714 -3.77532 8.96082 -4.54064
591 1 14.8414 -1.26308 6.26864 -4.5817
592 1 16.2323 -5.00756 4.84965 -4.44502
593 1 16.3255 -2.53985 7.60202 -4.38069
594 1 18.9231 -4.75439 8.1323 -3.74345
595 1 18.9368 -2.20883 4.47068 -4.44678
596 1 17.8773 -3.71105 6.13889 -5.02056
597 1 17.3976 -0.874043 9.01095 -4.45626
598 1 20.0125 -2.32536 9.5197 -3.91545
599 1 20.3248 -0.563889 5.57095 -4.36432
600 1 -21.1926 0.512707 5.38195 -4.07451
601 1 -18.8225 0.462113 7.72753 -4.63107
602 1 -18.4969 3.32512 5.28157 -4.61406
603 1 -20.0298 2.14775 6.66231 -4.39798
604 1 -19.3276 4.0103 8.3519 -4.21204
605 1 -17.2391 1.5799 9.03301 -4.70058
606 1 -17.5376 4.78706 6.92331 -4.97969
607 1 -15.9137 0.245317 4.99556 -4.56804
608 1 -16.031 3.089 7.6819 -4.44361
609 1 -13.538 0.233165 7.70935 -4.59064
610 1 -13.3429 3.05629 4.97398 -4.6148
611 1 -14.6697 1.76311 6.34648 -4.56788
612 1 -14.7006 4.36984 9.19372 -4.54283
613 1 -12.0724 1.39373 9.09722 -4.59537
614 1 -12.1288 4.35872 6.53854 -4.54119
615 1 -10.9337 0.393271 5.05318 -4.56526
616 1 -10.8683 2.85269 7.71407 -4.605
617 1 -7.9027 0.209436 7.88458 -4.60184
618 1 -8.03357 2.76521 5.0219 -4.59504
619 1 -9.40709 1.48665 6.44303 -4.57993
620 1 -9.30629 4.17766 8.91953 -4.58004
621 1 -6.50331 1.74232 9.12767 -4.61187
622 1 -6.48254 4.03452 6.19573 -4.60409
623 1 -5.37366 0.316715 5.11015 -4.57117
624 1 -5.04582 2.84259 7.6453 -4.60209
625 1 -2.63905 -0.0819052 7.97359 -4.56807
626 1 -2.63357 2.62271 4.9627 -4.55715
627 1 -3.80629 1.26629 6.52374 -4.56578
628 1 -3.86296 4.24026 9.11917 -4.60019
629 1 -1.39677 1.49254 9.07044 -4.58044
630 1 -1.38048 4.07815 6.25546 -4.61916
631 1 0.132371 0.239049 4.98425 -4.5752
632 1 0.0322557 2.85303 7.65998 -4.60317
633 1 2.83045 -0.0770033 7.71535 -4.52846
634 1 2.99245 2.86214 5.12899 -4.61427
635 1 1.51986 1.50575 6.38393 -4.59885
636 1 1.40125 4.18932 9.03478 -4.5439
637 1 4.30788 1.38972 9.10608 -4.57714
638 1 4.46876 4.26806 6.43734 -4.5697
639 1 5.3455 0.291437 5.05504 -4.60806
640 1 5.61574 2.72448 7.74597 -4.57947
641 1 8.20661 0.0024847 7.69896 -4.59496
642 1 8.19716 2.94216 5.0854 -4.61973
643 1 6.87612 1.41543 6.38409 -4.59702
644 1 6.83912 4.08051 9.22299 -4.6271
645 1 9.31594 1.60434 8.97445 -4.54484
646 1 9.54621 4.22703 6.54108 -4.57322
647 1 10.7054 0.135876 5.13227 -4.60287
648 1 10.9031 2.77481 7.75779 -4.61361
649 1 13.6276 0.10631 7.67633 -4.59077
650 1 13.5906 2.90346 4.95846 -4.61006
651 1 12.238 1.5568 6.26011 -4.56126
652 1 12.2468 4.02422 9.19763 -4.51597
653 1 14.7382 1.55744 9.17944 -4.55454
654 1 14.8625 4.42741 6.33058 -4.57073
655 1 16.0974 0.336379 5.1168 -4.60697
656 1 16.1473 2.95506 7.81474 -4.36617
657 1 18.7932 -0.0435443 7.23991 -4.56225
658 1 18.5155 2.53901 4.46532 -4.55598
659 1 17.6179 1.71778 6.42291 -4.5897
660 1 17.5396 4.29354 9.14965 -4.89177
661 1 20.2604 1.39829 8.3096 -4.49629
662 1 20.2045 3.86857 5.48269 -4.4341
663 1 21.2313 1.59707 5.97094 -4.02599
664 1 -19.8417 6.34557 8.50231 -4.12421
665 1 -18.1266 8.22348 5.27192 -3.59674
666 1 -19.3317 6.37765 6.17587 -4.4421
667 1 -17.6072 7.18535 9.30212 -4.88091
668 1 -17.2875 10.0259 6.61962 -4.58305
669 1 -16.2075 5.53859 5.03891 -4.3813
670 1 -16.0138 8.38855 7.69296 -4.43371
671 1 -13.6476 5.81513 7.73121 -4.58819
672 1 -13.3427 8.33832 4.88676 -4.5719
673 1 -14.7952 7.03871 6.18223 -4.57717
674 1 -14.6348 9.47294 9.28945 -4.65924
675 1 -12.2018 6.98702 9.21688 -4.56452
676 1 -11.9319 9.52503 6.24567 -4.52344
677 1 -10.7607 5.46582 4.81443 -4.5711
678 1 -10.7941 8.09983 7.58437 -4.57482
679 1 -7.89051 5.50323 7.45835 -4.59838
680 1 -8.00425 8.07314 4.73922 -4.59643
681 1 -9.38231 6.78873 6.10091 -4.58831
682 1 -9.53489 9.63378 8.89624 -4.55083
683 1 -6.58084 6.92363 8.93432 -4.58587
684 1 -6.54762 9.24077 6.16216 -4.61106
685 1 -5.25973 5.46022 4.86238 -4.55978
686 1 -5.13169 8.24969 7.74236 -4.53849
687 1 -2.45292 5.50919 7.79409 -4.61572
688 1 -2.70418 8.1219 4.84285 -4.57064
689 1 -3.92828 6.81894 6.4279 -4.57135
690 1 -4.09751 9.65011 9.20645 -4.53188
691 1 -1.20919 6.88151 9.20905 -4.5916
692 1 -1.17488 9.28348 6.28281 -4.58052
693 1 0.0192866 5.43179 4.87761 -4.62852
694 1 0.158595 7.988 7.63729 -4.58777
695 1 2.97868 5.53435 7.72445 -4.57023
696 1 2.82093 7.96853 4.96734 -4.5965
697 1 1.51701 6.67842 6.27168 -4.54361
698 1 1.31297 9.4822 9.12923 -4.57021
699 1 4.20995 6.8598 9.0771 -4.53463
700 1 4.19934 9.5162 6.26874 -4.5515
701 1 5.73496 5.73663 4.94599 -4.59216
702 1 5.42325 8.13583 7.6466 -4.60607
703 1 8.10689 5.52477 7.84207 -4.60236
704 1 8.00945 8.5312 4.94904 -4.57576
705 1 6.97796 6.99729 6.42686 -4.55824
706 1 6.68009 9.58299 9.05138 -4.56853
707 1 9.51565 6.73908 9.27614 -4.61711
708 1 9.463 9.77955 6.23006 -4.55591
709 1 11.0364 5.67256 5.03106 -4.54668
710 1 10.661 8.27359 7.80448 -4.54411
711 1 13.2985 5.45873 7.80317 -4.50843
712 1 13.5316 8.45794 4.98596 -4.21186
713 1 12.3133 7.06322 6.49322 -4.55949
714 1 11.9214 9.65861 9.12833 -4.41018
715 1 14.3539 6.70317 9.49538 -4.6027
716 1 15.0394 9.37061 6.62862 -4.92008
717 1 15.9777 5.79338 4.71242 -4.24836
718 1 16.0288 7.71785 8.05968 -4.27679
719 1 18.594 4.8066 6.99672 -4.2368
720 1 19.2533 7.47696 5.00661 -4.20302
721 1 17.419 6.80465 6.35398 -4.93674
722 1 17.3128 9.24912 9.49281 -4.20919
723 1 19.5697 6.86376 7.48329 -4.06047
724 1 -16.7451 11.949 8.065 -4.14531
725 1 -15.7307 11.0959 5.0776 -4.49239
726 1 -15.7968 13.8532 6.81929 -4.21466
727 1 -12.9578 10.5416 8.06833 -4.44642
728 1 -12.8253 13.1075 5.57195 -3.90302
729 1 -14.5056 11.9163 6.92677 -5.0175
730 1 -14.18 15.0914 7.95187 -4.08884
731 1 -11.6748 12.203 9.24875 -4.6174
732 1 -11.9657 14.9437 7.01179 -5.37999
733 1 -10.5677 10.8671 4.9666 -4.56946
734 1 -10.3012 13.3433 7.75568 -4.35032
735 1 -7.94936 10.6886 7.37421 -4.5608
736 1 -7.72865 13.5707 4.86479 -4.55472
737 1 -9.10818 12.2159 6.15083 -4.5806
738 1 -8.96856 14.9219 8.86446 -4.65584
739 1 -6.75156 12.0302 9.00805 -4.58551
740 1 -6.59215 14.8486 6.45276 -4.60203
741 1 -5.16803 10.6646 4.91843 -4.59918
742 1 -5.31287 13.4745 7.78755 -4.60372
743 1 -2.39839 10.7659 7.81984 -4.58139
744 1 -2.64904 13.4939 5.12889 -4.56769
745 1 -3.83201 12.0773 6.43176 -4.57599
746 1 -4.03279 14.9116 9.15432 -4.61805
747 1 -1.30269 12.2265 9.35452 -4.58436