ITEM: TIMESTEP
140000
ITEM: NUMBER OF ATOMS
4050
ITEM: BOX BOUNDS ss ss pp
-2.1029763314071765e+01 2.1069816421635998e+01
-2.1067575339807675e+01 2.0867623973457302e+01
-1.9008500000000002e+00 5.6210850000000001e+01
ITEM: ATOMS id type x y z c_peratom
1 1 -12.0221 -15.9433 0.0699025 -4.14367
2 1 -7.73784 -18.0228 -0.99319 -4.58075
3 1 -9.01148 -17.4367 1.86182 -4.46948
4 1 -7.44918 -19.2054 1.04941 -4.28905
5 1 -6.03794 -16.6634 -0.265376 -4.71066
6 1 -5.21862 -18.4418 0.865523 -4.6212
7 1 -2.46822 -18.5468 56.1368 -4.61664
8 1 -4.67415 -19.1616 -1.2398 -3.85193
9 1 -3.6563 -17.1493 2.22236 -4.47951
10 1 -0.456929 -19.6117 2.54081 -4.3402
11 1 -1.21709 -16.9287 -0.900745 -4.50991
12 1 0.64203 -20.0019 -0.488485 -4.49921
13 1 -0.0616236 -18.1135 0.739091 -4.63543
14 1 3.7746 -17.9082 55.6965 -4.64333
15 1 2.61341 -18.9371 -0.712656 -3.82509
16 1 1.48839 -16.7028 1.89366 -4.61095
17 1 3.75997 -19.3416 1.2736 -4.42971
18 1 4.29464 -16.3076 -0.945272 -4.58037
19 1 5.48407 -17.7476 0.441612 -4.53627
20 1 7.27639 -18.3379 -0.972913 -4.17405
21 1 9.92063 -17.6262 1.52787 -3.81762
22 1 6.68701 -16.5741 2.19981 -4.59397
23 1 9.23378 -16.8056 -0.513698 -4.47676
24 1 11.6296 -16.0665 1.86651 -3.73548
25 1 -14.7474 -12.9253 0.544013 -4.1159
26 1 -15.0621 -14.8814 1.92891 -3.99923
27 1 -13.3083 -16.4985 1.92517 -4.22739
28 1 -12.7386 -13.1187 56.0425 -4.62631
29 1 -13.8379 -14.718 -0.726296 -4.20137
30 1 -14.0039 -11.8638 2.48253 -4.65266
31 1 -11.4147 -14.8458 2.11609 -5.23891
32 1 -11.5431 -11.8775 -0.331543 -4.52485
33 1 -10.3207 -15.7781 -1.80883 -4.41645
34 1 -10.0317 -13.2831 0.878515 -4.32619
35 1 -7.59228 -15.6016 1.0856 -4.54529
36 1 -7.88451 -12.8089 -1.97315 -4.544
37 1 -8.77627 -14.5387 -0.591777 -4.58463
38 1 -9.01917 -11.7414 2.3381 -4.51166
39 1 -6.21256 -14.4223 2.47707 -4.54715
40 1 -6.34765 -11.7376 -0.665479 -4.56891
41 1 -4.9487 -15.7831 55.9098 -4.50119
42 1 -5.1147 -13.0845 0.870205 -4.53333
43 1 -2.41959 -15.6824 0.785585 -4.57674
44 1 -2.22291 -13.1789 56.0429 -4.57992
45 1 -3.79463 -14.3767 -0.714362 -4.62564
46 1 -3.708 -11.7978 2.42567 -4.5571
47 1 -1.23956 -14.1915 2.24321 -4.58227
48 1 -1.12941 -11.6756 -0.65443 -4.61333
49 1 0.48805 -15.9007 55.8084 -4.45498
50 1 0.194249 -12.852 0.831972 -4.52699
51 1 2.92041 -15.296 0.61172 -4.51763
52 1 2.7238 -12.8905 56.0696 -4.55194
53 1 1.33964 -14.2141 -0.720215 -4.57198
54 1 1.25825 -11.3705 2.1679 -4.48802
55 1 3.98124 -14.0038 2.32328 -4.55667
56 1 4.13696 -11.5578 -0.653431 -4.5479
57 1 5.68359 -15.2764 55.6772 -4.46785
58 1 5.48242 -12.8071 0.84578 -4.56558
59 1 8.11723 -15.2619 0.84558 -4.59523
60 1 8.21162 -12.8465 56.1004 -4.60183
61 1 6.81724 -14.0932 -0.677221 -4.53633
62 1 6.73834 -11.5037 2.50895 -4.57584
63 1 9.21758 -14.2135 2.52554 -4.49422
64 1 9.23557 -11.3758 -0.389489 -4.51062
65 1 10.9097 -15.6704 -1.94353 -4.41919
66 1 10.3259 -12.6687 1.28133 -4.4817
67 1 13.0417 -15.0987 0.373302 -4.57437
68 1 12.6448 -12.27 -1.36723 -4.18994
69 1 11.2411 -13.8831 -0.48984 -4.69216
70 1 11.9618 -11.588 2.52538 -4.57515
71 1 14.3932 -13.5059 1.55814 -4.08535
72 1 14.3251 -11.5775 0.100164 -5.39332
73 1 16.2832 -13.1793 0.218101 -4.16901
74 1 16.5161 -11.0475 1.28435 -3.73136
75 1 -17.7926 -7.85141 55.584 -4.01044
76 1 -18.5215 -5.92418 3.48129 -4.16987
77 1 -16.8504 -8.8357 3.14778 -3.61865
78 1 -17.0387 -6.50072 -0.218739 -4.23876
79 1 -15.2987 -10.9316 -1.56198 -3.93025
80 1 -15.8147 -8.11364 1.06832 -4.6112
81 1 -12.7415 -10.318 1.10369 -4.52506
82 1 -12.902 -7.87299 -1.92345 -4.6019
83 1 -14.1657 -9.19777 -0.398755 -4.64018
84 1 -14.4676 -6.73752 2.36073 -4.44158
85 1 -11.4746 -8.92775 2.50767 -4.59195
86 1 -11.6104 -6.61443 -0.353882 -4.59821
87 1 -10.4601 -10.4007 56.368 -4.53701
88 1 -10.1023 -7.68225 1.11535 -4.56656
89 1 -7.61317 -10.554 1.0112 -4.56314
90 1 -7.76335 -7.66449 56.1588 -4.57232
91 1 -8.85322 -9.20875 -0.444051 -4.57199
92 1 -8.9211 -6.34015 2.73789 -4.57792
93 1 -6.39803 -9.11362 2.35244 -4.54567
94 1 -6.57788 -6.35786 -0.403745 -4.58144
95 1 -4.94811 -10.5645 56.0268 -4.59785
96 1 -5.21771 -7.77208 0.862721 -4.5839
97 1 -2.49365 -10.3851 0.898409 -4.54233
98 1 -2.59619 -7.56538 -2.12141 -4.57939
99 1 -3.79449 -9.06376 -0.658205 -4.56425
100 1 -3.98127 -6.54592 2.36651 -4.56055
101 1 -1.27489 -9.05373 2.32271 -4.56275
102 1 -1.10297 -6.40534 -0.729187 -4.56381
103 1 0.225206 -10.345 56.0453 -4.60064
104 1 0.147046 -7.66858 0.890929 -4.53307
105 1 2.94708 -10.3543 0.866574 -4.53715
106 1 2.78568 -7.63312 55.9703 -4.55677
107 1 1.52221 -8.98504 -0.518568 -4.60926
108 1 1.3594 -6.40366 2.38641 -4.57749
109 1 4.01561 -9.00321 2.49251 -4.58376
110 1 3.84983 -6.27876 -0.473491 -4.62174
111 1 5.49823 -10.16 55.9903 -4.53021
112 1 5.23115 -7.5366 1.00135 -4.58624
113 1 7.92994 -10.0742 1.06091 -4.59553
114 1 7.87734 -7.47336 56.4612 -4.57915
115 1 6.53954 -8.9082 -0.38536 -4.58813
116 1 6.54644 -6.11058 2.51336 -4.58392
117 1 9.1235 -8.81605 2.62202 -4.51855
118 1 9.26919 -6.10451 -0.296089 -4.52658
119 1 10.2847 -10.0171 -1.94864 -4.56618
120 1 10.3532 -7.68544 1.04058 -4.54898
121 1 12.9826 -10.0194 1.1459 -4.31409
122 1 13.1091 -7.7502 -1.92678 -4.512
123 1 11.6632 -8.84281 -0.553193 -4.47414
124 1 11.5971 -6.50146 2.67662 -4.56448
125 1 14.4401 -9.12709 2.84975 -4.60611
126 1 14.0327 -6.43475 -0.32038 -4.55375
127 1 15.556 -10.4497 -1.68285 -4.36357
128 1 15.4047 -7.73343 1.15546 -4.6074
129 1 18.1235 -7.8164 56.3969 -3.3553
130 1 16.8516 -9.22175 -0.245808 -4.60896
131 1 16.7644 -6.07104 2.07411 -4.58054
132 1 19.0298 -5.62124 -1.76807 -4.12949
133 1 -18.2412 -5.03744 1.23075 -4.44557
134 1 -18.3409 -2.74101 -1.44083 -4.84821
135 1 -19.7159 -3.23507 0.416489 -4.22251
136 1 -18.5242 -1.74426 1.86019 -4.49704
137 1 -16.2598 -4.03909 2.10779 -4.4045
138 1 -17.175 -1.02248 -0.150113 -4.89576
139 1 -15.5455 -5.45046 -1.69273 -4.60848
140 1 -15.4301 -2.37753 0.715003 -4.3278
141 1 -13.0172 -5.29741 0.988772 -4.56469
142 1 -13.018 -2.69334 56.2719 -4.57741
143 1 -14.207 -4.06276 -0.505607 -4.50277
144 1 -14.5026 -1.05512 2.42454 -4.55965
145 1 -11.6974 -3.8559 2.39002 -4.56558
146 1 -11.7469 -1.20203 -0.337404 -4.56115
147 1 -10.3993 -5.1643 56.3466 -4.59295
148 1 -10.3721 -2.4665 1.07048 -4.614
149 1 -7.8902 -5.07042 1.02207 -4.56271
150 1 -7.70167 -2.21205 -2.01277 -4.55472
151 1 -9.01821 -3.66266 -0.464945 -4.55025
152 1 -8.98403 -1.09172 2.34617 -4.5777
153 1 -6.57416 -3.83648 2.51893 -4.60404
154 1 -6.40105 -1.01571 -0.504459 -4.57227
155 1 -5.20786 -5.20922 56.2382 -4.57968
156 1 -5.24573 -2.51357 0.962533 -4.58173
157 1 -2.60053 -5.35547 0.880536 -4.60197
158 1 -2.55169 -2.53001 56.2222 -4.57904
159 1 -3.95527 -3.89729 -0.422308 -4.60597
160 1 -3.77751 -1.1915 2.40328 -4.55944
161 1 -1.28328 -3.96885 2.23251 -4.57508
162 1 -1.36286 -0.989986 -0.618269 -4.59722
163 1 -0.0365543 -4.81289 56.0762 -4.52695
164 1 -0.166546 -2.32602 0.942533 -4.5976
165 1 2.40946 -4.88221 0.809484 -4.55316
166 1 2.74341 -2.34648 -2.19398 -4.54498
167 1 1.18279 -3.37431 -0.630292 -4.55492
168 1 1.17376 -0.947293 2.32011 -4.58334
169 1 3.65082 -3.70815 2.33843 -4.59841
170 1 3.87128 -0.960124 -0.579988 -4.571
171 1 5.20508 -4.92445 56.3482 -4.5788
172 1 5.04634 -2.34134 1.03714 -4.62399
173 1 7.946 -4.88769 1.10097 -4.57693
174 1 7.93076 -2.25365 56.5341 -4.57381
175 1 6.54957 -3.64907 -0.308132 -4.59878
176 1 6.40752 -0.81951 2.30428 -4.57664
177 1 9.02373 -3.55498 2.70761 -4.53376
178 1 9.30108 -0.90146 -0.238576 -4.57119
179 1 10.4146 -4.91873 -1.9098 -4.57757
180 1 10.4587 -2.50527 1.16785 -4.60053
181 1 12.8421 -5.07024 1.23405 -4.55955
182 1 12.8508 -2.48654 -1.88797 -4.58475
183 1 11.699 -3.78783 -0.265764 -4.48835
184 1 11.862 -1.06395 2.43779 -4.57926
185 1 14.3574 -3.67165 2.43665 -4.5758
186 1 14.2223 -1.24393 -0.446875 -4.53042
187 1 15.4014 -5.0566 -1.66148 -4.48582
188 1 15.7524 -2.20033 1.02544 -4.48224
189 1 18.4565 -5.12329 0.594315 -4.47642
190 1 17.9173 -2.31459 56.1536 -4.69904
191 1 16.7712 -3.74894 -0.323448 -4.62783
192 1 17.0028 -1.21073 2.70926 -4.59441
193 1 19.2855 -2.83684 1.33947 -3.69302
194 1 19.2274 -1.20143 -0.388756 -4.15763
195 1 -20.3112 -1.2412 -1.06296 -4.30552
196 1 -19.2884 0.467078 2.11495 -4.40664
197 1 -18.2922 2.58714 -1.65052 -4.26456
198 1 -18.9591 0.503091 -0.287759 -4.24744
199 1 -19.1151 4.41015 3.62972 -3.93338
200 1 -17.2257 1.39376 2.67523 -4.58962
201 1 -17.3021 3.72596 0.160545 -4.3799
202 1 -15.7958 -0.031936 -1.8282 -4.3766
203 1 -15.6375 2.67695 1.32827 -4.53311
204 1 -13.0371 0.171137 0.970746 -4.61593
205 1 -13.0666 2.6909 -1.77065 -4.64288
206 1 -14.5213 1.44869 -0.398701 -4.58958
207 1 -14.3205 4.14671 2.60378 -4.55915
208 1 -11.6254 1.41613 2.39937 -4.58022
209 1 -11.7286 4.0662 -0.385439 -4.56314
210 1 -10.459 0.157371 -1.83956 -4.58419
211 1 -10.3218 2.74064 1.08954 -4.52352
212 1 -7.8446 0.31962 0.786024 -4.60701
213 1 -7.78619 2.87264 -1.97108 -4.5725
214 1 -9.16784 1.65667 -0.62454 -4.57038
215 1 -8.98091 4.12842 2.2769 -4.58465
216 1 -6.64515 1.54071 2.33646 -4.5555
217 1 -6.5852 4.34929 -0.567351 -4.54414
218 1 -5.2865 0.244403 -2.03889 -4.59508
219 1 -5.52444 2.94334 0.839528 -4.55552
220 1 -2.85928 0.193429 0.708546 -4.55203
221 1 -2.5547 2.795 -2.18452 -4.56179
222 1 -3.99361 1.75348 -0.621482 -4.56715
223 1 -3.99211 4.06065 2.27151 -4.59592
224 1 -1.51353 1.29453 2.34444 -4.61157
225 1 -1.28632 3.95901 -0.525224 -4.60379
226 1 0.245865 0.0392389 56.1359 -4.49955
227 1 -0.108132 2.76357 1.11495 -4.57404
228 1 2.72086 0.364292 1.00264 -4.57376
229 1 2.59402 2.75847 -1.87765 -4.58212
230 1 1.21887 1.44796 -0.412213 -4.59416
231 1 1.37591 4.02956 2.40703 -4.56575
232 1 3.97471 1.62193 2.59373 -4.54537
233 1 3.76522 4.22401 -0.324719 -4.5841
234 1 5.31346 0.445067 -1.88247 -4.62036
235 1 5.14455 3.04783 1.16702 -4.58632
236 1 7.83979 0.502057 0.97232 -4.58854
237 1 7.91906 3.05308 -1.92652 -4.57718
238 1 6.52888 1.87823 -0.332008 -4.55966
239 1 6.4786 4.39238 2.59197 -4.58451
240 1 9.0084 1.60518 2.66428 -4.59464
241 1 9.27527 4.251 -0.363513 -4.56333
242 1 10.6357 0.407818 -1.81355 -4.57957
243 1 10.2968 3.04929 1.29751 -4.55985
244 1 12.9827 0.297345 0.985515 -4.56518
245 1 12.9207 2.97189 -1.91669 -4.6334
246 1 11.635 1.8136 -0.244527 -4.5463
247 1 11.8891 4.36952 2.53518 -4.56597
248 1 14.1686 1.5833 2.53043 -4.57574
249 1 14.3996 4.2948 -0.574374 -4.48775
250 1 15.332 0.263986 -1.8837 -4.48209
251 1 15.5626 3.01011 1.1865 -4.39351
252 1 18.4014 0.0910282 1.33728 -4.51853
253 1 17.5729 2.38947 -1.22384 -4.373
254 1 16.3844 1.08209 0.184214 -4.38731
255 1 17.2034 4.16136 2.59193 -4.87614
256 1 19.703 0.985216 3.06161 -4.27592
257 1 19.483 3.73026 -1.33487 -4.31529
258 1 19.6261 1.29728 56.2613 -3.83299
259 1 -18.485 5.20612 1.50333 -3.98994
260 1 -17.9826 8.1422 55.3791 -4.60222
261 1 -18.3465 6.38886 -1.20903 -3.94008
262 1 -17.1895 6.90681 2.65671 -4.69827
263 1 -17.3189 9.12832 -0.700208 -3.74673
264 1 -16.2235 5.23012 -1.65279 -5.31991
265 1 -16.0498 8.07447 0.921949 -4.59648
266 1 -13.2486 5.37303 0.861465 -4.56898
267 1 -13.3271 7.93539 -1.83569 -4.57852
268 1 -14.7255 6.6258 -0.355344 -4.31473
269 1 -14.6694 9.26796 2.49139 -4.54285
270 1 -11.9879 6.63342 2.31864 -4.51727
271 1 -12.0264 9.37452 -0.515653 -4.57605
272 1 -10.5974 5.37406 -2.0759 -4.60506
273 1 -10.8374 7.84027 0.797957 -4.55061
274 1 -7.8707 5.65959 0.855699 -4.5503
275 1 -8.09266 8.12974 56.1422 -4.58422
276 1 -9.38687 6.71502 -0.596991 -4.58869
277 1 -9.24034 8.93814 2.20612 -4.52126
278 1 -6.45015 6.71112 2.42773 -4.59728
279 1 -6.72055 9.46138 -0.474696 -4.56294
280 1 -5.20206 5.38037 -2.09522 -4.58311
281 1 -5.36337 8.00871 0.728097 -4.56716
282 1 -2.61082 5.35441 0.782742 -4.58849
283 1 -2.52722 8.04198 -2.07465 -4.5718
284 1 -3.96418 6.75168 -0.631334 -4.61136
285 1 -3.81634 9.00174 2.21002 -4.53032
286 1 -1.29963 6.56534 2.42667 -4.58285
287 1 -1.20329 9.3279 -0.606898 -4.53531
288 1 0.149803 5.39303 56.3977 -4.53209
289 1 -0.015614 8.22208 1.17824 -4.55112
290 1 2.51755 5.56371 1.05336 -4.58225
291 1 2.68893 8.12549 -1.80839 -4.55546
292 1 1.29474 6.95589 -0.412283 -4.58327
293 1 1.34393 9.35999 2.69152 -4.58451
294 1 3.9021 6.84433 2.41345 -4.55923
295 1 4.05729 9.41541 -0.320168 -4.59916
296 1 5.15144 5.55052 -1.66267 -4.55521
297 1 5.36832 8.20328 1.1473 -4.57104
298 1 7.94789 5.62108 1.0473 -4.56845
299 1 7.75869 8.30508 -1.96986 -4.55898
300 1 6.59466 7.04354 -0.425457 -4.56029
301 1 6.61671 9.42497 2.67536 -4.57706
302 1 9.25604 6.98803 2.56755 -4.54275
303 1 9.32554 9.49895 -0.634717 -4.49798
304 1 10.6297 5.61282 56.3495 -4.54591
305 1 10.4776 8.27623 1.08441 -4.33305
306 1 13.11 5.61107 0.985001 -4.55717
307 1 13.0259 7.7596 55.7569 -4.36992
308 1 11.8678 6.99143 -0.398692 -4.51834
309 1 12.162 9.57327 2.38507 -4.89033
310 1 14.4263 6.92492 2.34968 -4.50757
311 1 14.4755 9.16065 -1.21748 -4.39497
312 1 15.7441 5.32897 55.8373 -4.4327
313 1 16.2756 8.12651 1.34407 -4.56789
314 1 18.5154 4.81757 0.605471 -4.16562
315 1 17.6002 6.74145 55.9448 -4.63785
316 1 18.013 7.09101 0.133936 -3.66888
317 1 17.2716 8.78179 3.41627 -4.2477
318 1 19.3448 5.13844 2.92446 -4.19598
319 1 -15.9933 13.3445 3.54686 -4.18289
320 1 -15.9664 10.7314 -2.00404 -4.60642
321 1 -15.6612 13.9358 1.08421 -4.06957
322 1 -13.418 10.4916 0.958076 -4.54272
323 1 -13.4375 12.6316 -1.66477 -4.61161
324 1 -15.0736 11.9084 -0.0948703 -4.51549
325 1 -13.8207 13.8596 2.86863 -4.85728
326 1 -11.8612 11.4746 2.45449 -4.52468
327 1 -12.342 14.1291 -0.294798 -4.64505
328 1 -10.5501 10.5771 -2.01312 -4.58493
329 1 -10.7947 12.88 0.836188 -4.51639
330 1 -7.92088 10.62 1.07032 -4.53526
331 1 -7.95034 13.1946 56.0106 -4.54636
332 1 -9.084 11.8809 -0.578387 -4.51891
333 1 -9.37087 13.9711 2.32577 -4.43948
334 1 -6.49829 11.7624 2.42413 -4.54925
335 1 -6.60194 14.5221 -0.845089 -4.50965
336 1 -5.2056 10.4568 56.1515 -4.57495
337 1 -5.51743 12.9281 0.670013 -4.50157
338 1 -2.51165 10.4368 0.957212 -4.60563
339 1 -2.66486 13.1328 56.1293 -4.58336
340 1 -3.85151 11.7198 -0.50893 -4.6425
341 1 -4.14899 14.2663 2.26346 -4.41142
342 1 -1.48584 11.9448 2.43183 -4.56886
343 1 -1.47209 14.3898 -0.448325 -4.59676
344 1 0.133361 10.7107 56.3142 -4.54118
345 1 -0.0575955 13.2332 0.979988 -4.60956
346 1 2.65521 10.635 1.1176 -4.60342
347 1 2.91483 13.4206 56.3022 -4.58001
348 1 1.4796 12.0909 -0.349412 -4.56622
349 1 1.21102 14.4902 2.52936 -4.57848
350 1 4.00475 11.9318 2.45996 -4.57944
351 1 4.06321 14.8131 -0.315927 -4.49653
352 1 5.3153 10.826 -1.79287 -4.532
353 1 5.33804 13.5886 1.17898 -4.4573
354 1 7.97078 10.6506 1.12332 -4.53504
355 1 7.81479 13.3463 56.1826 -4.39739
356 1 6.56947 12.1454 -0.27881 -4.5363
357 1 6.60362 14.9093 2.76888 -4.59898
358 1 9.14405 12.1328 2.5814 -4.41074
359 1 9.08049 14.8058 -0.457046 -4.7289
360 1 10.5797 10.8623 56.041 -4.38847
361 1 10.5758 13.2608 0.943889 -4.63908
362 1 12.9736 10.3578 0.220161 -4.39406
363 1 13.0428 13.034 55.655 -4.18575
364 1 11.8729 12.1826 -0.667518 -4.71397
365 1 11.4627 14.332 2.92839 -4.2638
366 1 14.0675 10.9783 3.15697 -4.31436
367 1 13.712 13.6255 -0.246316 -4.2737
368 1 15.954 10.4807 55.6918 -4.37018
369 1 14.6794 11.7276 0.982973 -4.67514
370 1 16.2673 10.1911 0.0367066 -4.32221
371 1 -13.7791 15.5044 1.08841 -4.17675
372 1 -13.04 16.0548 3.39751 -4.18869
373 1 -9.90201 16.609 55.4424 -4.42166
374 1 -8.34876 15.1885 0.489793 -4.52623
375 1 -8.19977 18.092 -1.80406 -4.07097
376 1 -9.71207 17.0075 -0.27029 -4.39956
377 1 -6.92704 15.9325 2.135 -4.67613
378 1 -8.20597 18.6256 0.619534 -4.24637
379 1 -5.45581 16.0633 55.9527 -4.55875
380 1 -5.95787 17.6055 0.611765 -4.60464
381 1 -2.93969 15.7147 0.872026 -4.62332
382 1 -2.56351 18.4223 56.0875 -4.58199
383 1 -4.00861 17.204 -0.631864 -4.40848
384 1 -4.99886 19.0677 2.22607 -3.66387
385 1 -1.56818 17.0743 2.17263 -4.59565
386 1 -0.71187 19.6022 -1.02489 -3.66197
387 1 -0.0480581 15.6679 56.3968 -4.51701
388 1 -0.0343878 18.4099 0.935105 -4.66149
389 1 2.54174 15.9458 1.10813 -4.5951
390 1 2.8463 18.5504 -1.31992 -4.39655
391 1 1.26769 17.1497 -0.404974 -4.62747
392 1 0.9843 19.816 2.44741 -4.55093
393 1 3.73402 17.2362 2.59436 -4.65555
394 1 2.72985 19.9772 0.755693 -4.23706
395 1 4.90666 16.1064 56.0231 -4.39618
396 1 4.7749 18.9573 1.32833 -4.36333
397 1 8.05152 16.8893 0.133907 -4.41262
398 1 9.34502 18.2824 -1.25958 -4.22104
399 1 6.04653 17.5891 -0.63415 -4.18941
400 1 5.58562 19.7921 3.42632 -3.63517
401 1 8.3492 16.5057 2.42966 -4.53917
402 1 10.0873 15.3353 55.3807 -4.26964
403 1 12.1621 15.0801 0.815151 -4.26646
404 1 10.9156 16.4075 -0.83707 -4.25769
405 1 1.46551 20.4558 -1.20221 -4.38767
406 1 -12.4755 -16.2691 4.00644 -4.20908
407 1 -7.64711 -18.4411 3.48753 -3.48033
408 1 -8.9173 -16.8744 8.13111 -3.63687
409 1 -6.37799 -19.2597 8.94542 -4.13625
410 1 -6.45738 -17.3672 5.11888 -4.57405
411 1 -5.29859 -18.487 6.87529 -4.57953
412 1 -2.36399 -18.6114 3.55503 -4.52264
413 1 -3.38579 -19.2192 5.68338 -3.65565
414 1 -3.85323 -16.8582 7.94611 -4.48419
415 1 -1.73339 -19.2019 7.26311 -3.97801
416 1 -1.0674 -17.1138 4.89102 -4.64403
417 1 1.58471 -20.7115 1.73543 -4.08596
418 1 0.285909 -18.4401 6.25267 -4.17345
419 1 2.9519 -18.1123 3.16878 -4.6436
420 1 1.37407 -19.6671 3.87684 -4.05469
421 1 1.35615 -16.8677 7.61109 -4.55308
422 1 4.52819 -19.4254 8.57032 -4.30299
423 1 4.13905 -17.0969 5.07057 -4.44386
424 1 5.66825 -18.1344 6.72785 -4.48882
425 1 8.35616 -17.9482 3.19256 -4.51741
426 1 7.58095 -18.671 5.37887 -3.42346
427 1 6.70407 -16.7679 8.3915 -4.46301
428 1 9.31149 -16.9838 5.20377 -4.38015
429 1 12.7078 -15.6412 9.45 -4.14173
430 1 -17.6664 -10.3834 5.91369 -4.2853
431 1 -16.0133 -12.201 5.82263 -4.1922
432 1 -13.2838 -14.2502 5.05681 -4.45862
433 1 -12.0409 -12.9845 3.35025 -4.30492
434 1 -15.22 -13.394 3.88384 -4.36835
435 1 -14.4732 -11.6381 7.70991 -4.51572
436 1 -12.0501 -14.1517 7.39953 -4.36015
437 1 -11.595 -11.4509 5.05376 -4.50696
438 1 -10.1152 -16.2639 3.58158 -4.14526
439 1 -10.2107 -12.837 6.52034 -4.60529
440 1 -7.77026 -15.682 6.32928 -4.6511
441 1 -7.79309 -13.2068 3.78307 -4.62734
442 1 -9.28116 -14.4592 5.09952 -4.50023
443 1 -9.04909 -11.6037 8.21982 -4.58238
444 1 -6.56046 -14.2279 7.83212 -4.57285
445 1 -6.59759 -11.6319 5.26085 -4.56257
446 1 -5.02604 -16.0366 3.74729 -4.5686
447 1 -5.07128 -12.8896 6.65659 -4.56354
448 1 -2.37925 -15.7608 6.51332 -4.5253
449 1 -2.72272 -13.375 3.94093 -4.54904
450 1 -4.07287 -14.7155 5.41754 -4.52058
451 1 -3.94606 -11.4958 8.29242 -4.55838
452 1 -1.32444 -14.3663 8.03062 -4.56959
453 1 -1.34022 -11.8815 5.28165 -4.56286
454 1 0.151623 -15.6428 3.44383 -4.6291
455 1 0.159993 -13.2092 6.52216 -4.60373
456 1 2.76674 -15.6371 6.26369 -4.54671
457 1 2.67326 -12.5621 3.67789 -4.57709
458 1 1.5532 -14.2761 4.85464 -4.58079
459 1 1.33054 -11.8554 8.14234 -4.61699
460 1 3.63088 -14.3846 8.07214 -4.39793
461 1 4.12794 -11.6248 5.42427 -4.55684
462 1 5.30617 -15.4017 3.88421 -4.53558
463 1 5.22862 -12.9709 6.93507 -4.59576
464 1 8.04687 -15.5668 6.73685 -4.48471
465 1 7.96144 -12.9045 4.0248 -4.60189
466 1 6.53883 -14.2076 5.41671 -4.59691
467 1 6.67886 -11.5749 8.12873 -4.57634
468 1 9.16205 -14.2051 8.35835 -4.47971
469 1 9.34102 -11.4373 5.40401 -4.6103
470 1 10.6117 -15.3464 3.93869 -4.52353
471 1 10.4945 -12.9235 6.75359 -4.5705
472 1 13.0524 -14.9784 7.10477 -4.09597
473 1 13.6366 -12.8143 3.68753 -4.38138
474 1 12.0503 -13.8973 5.14068 -4.41365
475 1 11.8701 -11.6538 8.05904 -4.41535
476 1 13.2762 -13.3828 9.00374 -5.13175
477 1 14.6706 -11.7241 5.52478 -4.57652
478 1 15.1536 -13.7868 6.85446 -3.92178
479 1 15.6042 -13.0338 8.99187 -4.29303
480 1 -18.2074 -8.07485 4.86069 -4.41943
481 1 -19.2902 -5.81547 9.20527 -4.3035
482 1 -17.2729 -9.67304 8.16703 -4.59895
483 1 -16.8084 -6.62834 6.18278 -4.41211
484 1 -15.6472 -10.1154 4.63454 -4.59645
485 1 -15.7097 -8.01335 7.59239 -4.54699
486 1 -12.7181 -10.3356 6.90265 -4.5898
487 1 -13.0916 -7.78744 3.95099 -4.4821
488 1 -14.2166 -8.84473 5.82831 -4.59691
489 1 -14.2598 -6.43608 8.49056 -4.56368
490 1 -11.7483 -9.02457 8.56224 -4.49293
491 1 -11.8089 -6.39592 5.50813 -4.57664
492 1 -9.92679 -10.2162 3.89996 -4.56107
493 1 -10.6167 -7.80581 7.03271 -4.48811
494 1 -7.70269 -10.1692 6.83519 -4.57284
495 1 -7.47822 -7.71238 3.98019 -4.55148
496 1 -9.09141 -8.78356 5.47344 -4.51861
497 1 -9.28522 -6.44549 8.41017 -4.56359
498 1 -6.4639 -8.88412 8.48596 -4.55793
499 1 -6.41394 -6.37038 5.54579 -4.58026
500 1 -5.15873 -10.5309 3.80547 -4.6364
501 1 -5.11134 -7.85418 6.77904 -4.58807
502 1 -2.54314 -10.5029 6.75496 -4.57893
503 1 -2.64579 -7.85916 3.79174 -4.61986
504 1 -3.86334 -9.22497 5.29909 -4.59372
505 1 -3.74752 -6.52269 8.19381 -4.55007
506 1 -1.28242 -9.03672 8.12322 -4.58919
507 1 -1.25839 -6.36562 5.03837 -4.56478
508 1 -0.12282 -10.5613 3.90347 -4.47846
509 1 -0.000150641 -7.6895 6.74113 -4.54255
510 1 2.59672 -10.3969 6.71356 -4.6342
511 1 2.55844 -7.78704 3.85147 -4.54228
512 1 1.15523 -9.19598 5.37195 -4.55025
513 1 1.11451 -6.36464 8.36058 -4.56222
514 1 3.82642 -8.98346 8.20565 -4.58299
515 1 3.75281 -6.32897 5.19826 -4.54788
516 1 5.36698 -10.2187 3.91662 -4.58271
517 1 4.96244 -7.46482 6.87612 -4.5734
518 1 7.92187 -10.1746 6.76871 -4.55224
519 1 7.79107 -7.55113 4.08918 -4.57032
520 1 6.37607 -8.7948 5.50224 -4.606
521 1 6.45137 -6.34795 8.33237 -4.58274
522 1 9.14056 -9.10673 8.41555 -4.61658
523 1 8.94122 -6.22614 5.64935 -4.57098
524 1 10.679 -10.2677 3.88078 -4.55079
525 1 10.4162 -7.55736 7.03084 -4.5749
526 1 13.146 -10.2541 6.6476 -4.61357
527 1 13.1608 -7.66808 4.16161 -4.59135
528 1 11.6776 -8.87453 5.51976 -4.59003
529 1 11.8164 -6.42147 8.52998 -4.62348
530 1 14.5097 -9.3008 8.37039 -4.53846
531 1 14.5916 -6.55948 5.57262 -4.5265
532 1 16.0344 -10.3885 4.08441 -4.07766
533 1 15.8522 -7.81055 7.08829 -4.67915
534 1 17.8032 -7.30377 3.68629 -3.76826
535 1 17.239 -8.82497 5.45517 -4.13499
536 1 17.0954 -6.63929 8.79466 -4.3071
537 1 18.7133 -6.2985 5.55553 -3.89117
538 1 -18.5351 -5.08426 6.95791 -4.45767
539 1 -17.4898 -2.78535 3.68847 -4.32897
540 1 -19.1692 -4.08854 4.77606 -4.37217
541 1 -19.5111 -1.96788 5.99964 -3.9868
542 1 -16.7929 -3.73987 8.04579 -4.58543
543 1 -17.5185 -0.999694 5.22628 -5.28753
544 1 -16.09 -5.64298 3.89362 -4.83519
545 1 -15.729 -2.42875 6.39736 -4.29134
546 1 -13.27 -5.1693 6.79864 -4.54803
547 1 -13.2998 -2.68312 3.66155 -4.59208
548 1 -14.57 -4.07146 5.10235 -4.39875
549 1 -14.2893 -1.37954 8.01965 -4.53743
550 1 -11.8277 -3.80922 8.11688 -4.6042
551 1 -12.0676 -1.20433 5.16353 -4.59276
552 1 -10.525 -5.0627 3.95143 -4.57521
553 1 -10.657 -2.42894 6.60669 -4.5879
554 1 -7.96892 -5.07964 6.69146 -4.51873
555 1 -7.72711 -2.29703 3.98831 -4.59039
556 1 -9.18206 -3.61253 5.2916 -4.61498
557 1 -9.39408 -1.30964 8.25507 -4.59233
558 1 -6.5128 -3.81574 7.96029 -4.60286
559 1 -6.35988 -0.973472 5.32004 -4.56122
560 1 -5.24166 -5.26098 3.79872 -4.56344
561 1 -5.1357 -2.36541 6.70117 -4.56353
562 1 -2.71811 -5.30864 6.5675 -4.52612
563 1 -2.51695 -2.66479 3.66664 -4.56395
564 1 -4.02062 -3.84462 5.14793 -4.59036
565 1 -3.89574 -1.16996 8.35875 -4.59176
566 1 -1.24053 -3.86716 7.9488 -4.47674
567 1 -1.31396 -1.4336 5.27325 -4.53922
568 1 0.134473 -5.02048 3.7711 -4.57176
569 1 0.139114 -2.55384 6.76149 -4.54132
570 1 2.42824 -5.05363 6.84238 -4.51998
571 1 2.50601 -2.19232 3.78146 -4.57824
572 1 1.45648 -3.7242 5.15947 -4.53861
573 1 1.43533 -1.26079 8.33108 -4.53926
574 1 3.82707 -3.86778 8.30992 -4.53258
575 1 3.87022 -1.15016 5.43867 -4.58763
576 1 5.04548 -4.91315 3.83002 -4.58666
577 1 5.21471 -2.61288 6.74599 -4.54428
578 1 7.6252 -4.92279 6.91068 -4.51871
579 1 7.76303 -2.11275 3.82831 -4.50572
580 1 6.58817 -3.63436 5.18195 -4.54209
581 1 6.50827 -1.35812 8.23497 -4.60942
582 1 9.08182 -3.79656 8.35309 -4.58972
583 1 9.11034 -1.10517 5.5234 -4.57736
584 1 10.2661 -5.10425 4.01217 -4.61781
585 1 10.3824 -2.71129 6.68863 -4.57997
586 1 13.182 -5.24396 7.00649 -4.60237
587 1 13.0883 -2.43383 3.88585 -4.61055
588 1 11.8769 -3.95829 5.33753 -4.5609
589 1 11.7375 -1.47391 8.30723 -4.56772
590 1 14.6705 -3.82509 8.22076 -4.57557
591 1 14.4243 -1.32429 5.45652 -4.58544
592 1 15.6012 -5.02313 4.02188 -4.36496
593 1 15.9509 -2.79546 6.54414 -4.33713
594 1 18.0344 -5.1481 7.33503 -3.4929
595 1 18.6808 -2.42301 3.72779 -4.28298
596 1 17.5496 -4.15258 5.142 -4.94648
597 1 17.3159 -1.46902 8.0503 -4.52498
598 1 19.1669 -2.42939 9.11908 -4.53633
599 1 19.7205 -0.541194 4.82251 -4.39978
600 1 -19.6308 -0.0347734 4.53156 -4.051
601 1 -17.6989 0.50901 7.03588 -4.42483
602 1 -17.7971 2.71099 4.58157 -4.68072
603 1 -19.3223 1.81808 6.07396 -4.64585
604 1 -19.1585 3.51802 7.90193 -3.7058
605 1 -16.5759 2.06847 8.46731 -4.53704
606 1 -17.0093 4.63561 5.69266 -4.59874
607 1 -15.8516 0.0581573 3.95853 -4.30937
608 1 -15.5289 3.12834 6.82101 -4.33467
609 1 -13.1014 0.154255 6.7544 -4.59272
610 1 -12.9812 2.66343 3.8553 -4.6103
611 1 -14.4811 1.47997 5.31894 -4.53749
612 1 -14.0373 4.19776 8.2939 -4.53827
613 1 -11.5773 1.19452 8.18991 -4.57629
614 1 -11.4851 3.95433 5.29824 -4.55717
615 1 -10.4289 0.0195377 3.92927 -4.61141
616 1 -10.3486 2.75349 7.01125 -4.54462
617 1 -7.95825 0.000945008 6.83719 -4.59396
618 1 -7.91146 2.73327 3.82127 -4.54445
619 1 -9.14288 1.42017 5.39844 -4.59055
620 1 -9.006 3.99709 8.42545 -4.56347
621 1 -6.59883 1.46639 8.12275 -4.59757
622 1 -6.51226 4.05216 5.26515 -4.59582
623 1 -5.20858 0.178102 3.66802 -4.5461
624 1 -5.14302 2.77026 6.69073 -4.56082
625 1 -2.63911 -0.207975 6.66364 -4.48963
626 1 -2.78338 2.62921 3.74399 -4.61105
627 1 -4.03761 1.36856 5.26621 -4.5133
628 1 -4.02576 4.25715 8.18668 -4.56403
629 1 -1.42201 1.36428 8.05919 -4.59169
630 1 -1.36261 3.81801 5.25193 -4.57866
631 1 -0.230632 0.0308263 3.81783 -4.5391
632 1 0.0520619 2.68941 6.6964 -4.62239
633 1 2.47506 0.0982448 6.77367 -4.57407
634 1 2.6202 2.86183 4.06192 -4.5852
635 1 1.27944 1.38705 5.20865 -4.5439
636 1 1.2799 4.0761 8.17107 -4.60348
637 1 4.01888 1.22712 8.17836 -4.5237
638 1 3.85036 4.2593 5.48377 -4.60065
639 1 5.09955 0.264241 3.99428 -4.54605
640 1 5.26396 2.8972 6.83675 -4.57388
641 1 7.77793 0.228306 7.09662 -4.55144
642 1 7.7699 3.13493 4.04905 -4.58935
643 1 6.54591 1.55136 5.40069 -4.5793
644 1 6.59476 4.25512 8.46194 -4.53438
645 1 9.25136 1.43753 8.58644 -4.58014
646 1 9.19191 4.33163 5.45406 -4.54564
647 1 10.4527 0.182804 3.99387 -4.58366
648 1 10.3389 2.83647 6.97167 -4.57276
649 1 13.0118 0.0450367 6.83666 -4.56006
650 1 13.0584 2.95811 4.10918 -4.6001
651 1 11.7207 1.59828 5.43069 -4.57512
652 1 11.815 4.0601 8.31582 -4.59017
653 1 14.2115 1.27794 8.42729 -4.56095
654 1 14.4782 4.35266 5.4123 -4.50564
655 1 15.4162 0.176604 3.85821 -4.54141
656 1 15.2305 2.91123 7.17095 -4.48583
657 1 18.0011 -0.0210177 6.33134 -4.69418
658 1 17.9122 2.34339 3.92721 -4.54132
659 1 16.3177 1.49232 5.54976 -4.5228
660 1 16.8907 4.03375 8.24427 -4.54928
661 1 19.3655 1.45415 7.46366 -4.47342
662 1 19.4605 3.70975 4.83352 -4.50989
663 1 20.6157 1.61365 5.35096 -4.13889
664 1 -19.1544 5.9123 8.05955 -4.43611
665 1 -18.0097 8.07447 4.43049 -3.55292
666 1 -18.8312 6.14282 5.5025 -4.31077
667 1 -16.8611 6.46821 8.37355 -4.68695
668 1 -16.9595 9.85766 5.56896 -4.49353
669 1 -15.6671 5.51811 3.91224 -4.60134
670 1 -15.8522 8.0536 6.75129 -4.4484
671 1 -12.9087 5.31656 6.52824 -4.54373
672 1 -13.1677 8.10765 3.88545 -4.54881
673 1 -14.3374 6.79381 5.3487 -4.62048
674 1 -14.2146 9.15669 8.22846 -4.63075
675 1 -11.6303 6.5711 8.16413 -4.55657
676 1 -11.6105 9.33052 5.20602 -4.59634
677 1 -10.3587 5.33865 3.68116 -4.54691
678 1 -10.3543 7.93992 6.66391 -4.60618
679 1 -7.87957 5.34021 6.74713 -4.51481
680 1 -7.71507 8.13749 3.81046 -4.56523
681 1 -9.00028 6.67421 5.23321 -4.58481
682 1 -9.12689 9.38642 8.14846 -4.51389
683 1 -6.84221 6.84184 8.23046 -4.57752
684 1 -6.36788 9.4106 5.21941 -4.53884
685 1 -5.20765 5.27512 3.84105 -4.56398
686 1 -5.26864 8.06507 6.89561 -4.54238
687 1 -2.67456 5.27116 6.53368 -4.59701
688 1 -2.58969 7.91602 3.79963 -4.55888
689 1 -4.02214 6.76349 5.25102 -4.59476
690 1 -3.96696 9.30337 8.4559 -4.60549
691 1 -1.57816 6.66708 8.12103 -4.5683
692 1 -1.42887 9.31492 5.34466 -4.59114
693 1 -0.0192997 5.16858 3.82092 -4.60278
694 1 -0.0822985 7.90889 6.76032 -4.57663
695 1 2.50464 5.55771 6.86912 -4.6056
696 1 2.66509 7.98568 4.13661 -4.59129
697 1 1.09463 6.61401 5.31737 -4.56833
698 1 1.30404 9.02381 8.28736 -4.56304
699 1 3.86822 6.85981 8.40884 -4.54484
700 1 4.00553 9.37069 5.60228 -4.59513
701 1 5.12137 5.65125 4.03562 -4.57706
702 1 5.3925 8.10826 7.11031 -4.59388
703 1 7.84682 5.63728 7.08756 -4.53779
704 1 7.96984 8.04669 4.13531 -4.56701
705 1 6.57089 6.74795 5.52403 -4.53305
706 1 6.53969 9.49764 8.58414 -4.58394
707 1 9.28005 6.89607 8.52356 -4.58767
708 1 9.30844 9.54845 5.52071 -4.48537
709 1 10.5732 5.66695 4.04111 -4.56778
710 1 10.6271 8.40611 7.28029 -4.32793
711 1 12.9534 5.48716 6.85025 -4.56477
712 1 12.8993 7.90396 3.91661 -4.30836
713 1 11.606 6.92101 5.69585 -4.45935
714 1 12.183 9.71196 8.69106 -4.91854
715 1 14.3597 6.58399 8.356 -4.41203
716 1 14.3283 8.73792 5.52261 -4.40247
717 1 15.6554 5.49092 3.78531 -4.2973
718 1 15.568 8.52733 7.59042 -4.68283
719 1 17.8722 4.709 6.10332 -4.22492
720 1 19.0898 7.29819 4.05951 -4.20357
721 1 16.9461 6.92963 5.14892 -4.77612
722 1 17.2782 9.73568 8.77365 -4.18195
723 1 18.9415 6.74279 6.45156 -4.24241
724 1 -16.0326 11.5687 7.06242 -4.14895
725 1 -15.727 10.9136 3.79125 -4.44721
726 1 -15.4163 13.465 5.82569 -4.24696
727 1 -12.682 10.4223 6.98287 -4.41559
728 1 -12.4367 12.6942 4.41463 -3.94603
729 1 -14.1722 11.4779 5.47211 -5.07071
730 1 -13.4867 14.2178 6.98192 -4.11167
731 1 -11.2271 11.9305 8.25295 -4.58599
732 1 -11.4543 14.5265 5.69903 -5.41158
733 1 -10.1719 10.3997 3.71849 -4.51804
734 1 -9.87599 13.3045 6.99365 -4.33374
735 1 -7.5894 10.6546 6.73616 -4.52059
736 1 -7.86036 13.194 3.77323 -4.50357
737 1 -9.05344 11.7995 5.23525 -4.54291
738 1 -8.48676 14.8476 8.00002 -4.56825
739 1 -6.54332 11.9328 8.29596 -4.51207
740 1 -6.46922 14.6438 5.16249 -4.62439
741 1 -4.99935 10.5269 3.76024 -4.49778
742 1 -5.18429 13.3534 6.77083 -4.50771
743 1 -2.67927 10.6588 6.93243 -4.55259