ITEM: TIMESTEP
216000
ITEM: NUMBER OF ATOMS
4050
ITEM: BOX BOUNDS ss ss pp
-2.0720902412893174e+01 2.0793991856675184e+01
-2.0527311262425137e+01 2.0507403726790386e+01
-2.9327400000000008e+00 5.7242739999999998e+01
ITEM: ATOMS id type x y z c_peratom
1 1 -11.9066 -15.4081 -0.905176 -4.06396
2 1 -7.56131 -18.0326 -2.31436 -4.27318
3 1 -9.09379 -17.0196 0.797959 -4.58362
4 1 -7.46259 -18.6935 0.591575 -3.92445
5 1 -6.3091 -16.2498 -1.39394 -4.70237
6 1 -5.29077 -17.9542 -0.0743891 -4.66897
7 1 -2.80725 -17.8364 -3.03071 -4.5734
8 1 -4.77794 -18.9648 -2.24575 -3.91867
9 1 -4.09137 -16.6914 1.66539 -4.38929
10 1 -0.874605 -19.0832 1.8776 -4.28382
11 1 -1.80577 -16.2542 -1.48843 -4.30421
12 1 0.240403 -19.4183 -1.05852 -4.54893
13 1 -0.642786 -17.6081 0.0980021 -4.5577
14 1 3.16329 -17.4696 56.9783 -4.66157
15 1 2.48194 -19.0638 -1.60935 -3.72104
16 1 1.30409 -16.6147 1.33246 -4.59017
17 1 3.2913 -19.3486 0.639347 -4.4323
18 1 3.82319 -16.2233 -1.33307 -4.61783
19 1 5.09105 -17.8107 -0.0898786 -4.42014
20 1 6.70102 -18.215 -1.97972 -4.26059
21 1 9.39113 -17.5918 0.909179 -4.29726
22 1 6.21428 -16.8654 1.63224 -4.47723
23 1 8.68046 -17.083 -1.29703 -4.13354
24 1 11.338 -16.3254 1.13414 -3.61813
25 1 -15.0709 -12.7038 -0.972587 -4.15817
26 1 -15.3586 -13.8996 1.13242 -4.24739
27 1 -13.9905 -15.7691 0.256808 -4.24344
28 1 -12.414 -13.1962 56.963 -4.54935
29 1 -13.9193 -14.5431 -1.85199 -4.40381
30 1 -14.3612 -11.7304 1.02449 -4.22527
31 1 -11.4757 -14.0782 1.04693 -4.85297
32 1 -11.4282 -11.5371 -1.68695 -4.58122
33 1 -10.2933 -15.7244 -2.87203 -4.30638
34 1 -10.0385 -12.8046 -0.314896 -4.44613
35 1 -7.73688 -15.3495 0.193552 -4.53831
36 1 -7.48387 -12.8628 -2.86008 -4.5751
37 1 -8.87949 -14.4422 -1.54349 -4.56939
38 1 -9.02374 -11.4168 1.36357 -4.51277
39 1 -6.51869 -13.9178 1.53543 -4.51373
40 1 -6.33611 -11.3305 -1.44339 -4.54645
41 1 -4.68706 -15.1999 57.3888 -4.46962
42 1 -5.09859 -12.5291 0.147093 -4.51337
43 1 -2.85406 -15.1885 0.281244 -4.43402
44 1 -2.25197 -12.8458 -3.09209 -4.51995
45 1 -3.64247 -13.6558 -1.47054 -4.42395
46 1 -3.66825 -11.4215 1.77397 -4.54695
47 1 -1.18382 -14.2151 1.42138 -4.53486
48 1 -1.06641 -11.4825 -1.61796 -4.54806
49 1 0.0954966 -16.0397 57.3072 -4.77894
50 1 0.0235975 -12.7534 0.0332083 -4.50188
51 1 2.51143 -15.0054 0.153861 -4.55493
52 1 2.7368 -13.1913 57.2325 -4.4516
53 1 1.15161 -14.1888 -1.57291 -4.32903
54 1 1.20698 -11.3243 1.41472 -4.54252
55 1 3.99324 -14.0061 1.74808 -4.55926
56 1 4.0934 -11.7717 -1.3819 -4.48748
57 1 5.20385 -15.0821 -2.80933 -4.58674
58 1 5.48303 -12.7996 0.278277 -4.56794
59 1 7.84837 -15.6907 0.30535 -4.94449
60 1 7.75515 -12.741 -3.0267 -4.45552
61 1 6.7615 -14.2072 -1.27097 -4.28658
62 1 6.51086 -11.3896 1.81979 -4.51007
63 1 8.8471 -14.283 2.00639 -4.4377
64 1 8.80992 -11.4177 -1.33562 -4.42449
65 1 10.2905 -15.6833 -2.68332 -4.44668
66 1 9.88683 -12.6038 0.543736 -4.43066
67 1 12.6736 -15.2055 -0.507657 -4.65178
68 1 12.3249 -12.4265 -2.30834 -4.35331
69 1 10.8894 -13.9462 -1.16295 -4.6669
70 1 11.5046 -11.5018 1.93386 -4.57309
71 1 13.963 -13.3528 0.444756 -3.99814
72 1 14.0288 -11.3161 -0.803076 -5.40882
73 1 15.8666 -12.7744 -0.754596 -4.00819
74 1 16.3021 -10.6468 0.0818098 -3.82644
75 1 -17.6173 -7.26215 56.6738 -4.24874
76 1 -18.8874 -5.83419 2.46333 -4.22942
77 1 -16.6495 -8.55403 1.90646 -3.57063
78 1 -16.6584 -6.37339 -1.34278 -4.34125
79 1 -15.1886 -10.835 -2.7502 -4.27198
80 1 -15.3117 -7.93676 -0.0598316 -4.56633
81 1 -12.6888 -10.4161 -0.0194071 -4.50674
82 1 -12.8097 -7.64335 -3.00468 -4.51787
83 1 -13.9489 -9.21193 -1.58386 -4.62835
84 1 -13.8425 -6.62063 1.27674 -4.49286
85 1 -11.5261 -9.05324 1.5221 -4.54287
86 1 -11.5554 -6.29352 -1.45259 -4.56457
87 1 -10.1401 -10.2207 -3.08496 -4.57608
88 1 -10.3349 -7.54966 0.181293 -4.56755
89 1 -7.53024 -10.0467 0.0391537 -4.52486
90 1 -7.79293 -7.41099 -2.93265 -4.49353
91 1 -9.02031 -8.82532 -1.36123 -4.55457
92 1 -9.01989 -6.3679 1.67266 -4.54853
93 1 -6.43822 -8.92898 1.77959 -4.52147
94 1 -6.4662 -6.34008 -1.32975 -4.53773
95 1 -4.77997 -10.3044 57.3041 -4.596
96 1 -5.1709 -7.74826 0.141786 -4.50823
97 1 -2.37633 -10.2685 0.0609339 -4.50421
98 1 -2.35527 -7.82547 -3.09701 -4.53058
99 1 -3.63713 -8.84562 -1.39998 -4.5612
100 1 -3.72445 -6.2754 1.54008 -4.578
101 1 -1.25436 -8.89699 1.63632 -4.53756
102 1 -1.2146 -6.52764 -1.47713 -4.56406
103 1 0.33632 -10.2941 57.1158 -4.52109
104 1 0.144737 -7.74053 -0.0581709 -4.54563
105 1 2.88727 -10.2872 0.0473731 -4.57155
106 1 2.68434 -7.59078 57.1787 -4.57876
107 1 1.54293 -9.05219 -1.44323 -4.59052
108 1 1.36345 -6.34226 1.30898 -4.53628
109 1 3.90235 -8.89504 1.6669 -4.54982
110 1 4.01903 -6.40421 -1.51146 -4.57118
111 1 5.05045 -10.2106 57.3693 -4.51522
112 1 5.20829 -7.6656 0.0959083 -4.57084
113 1 7.66822 -10.1067 0.302007 -4.5089
114 1 7.6427 -7.53662 -2.8824 -4.53628
115 1 6.44477 -8.96674 -1.41595 -4.56525
116 1 6.60293 -6.19677 1.47311 -4.56122
117 1 8.99454 -8.69803 1.56305 -4.57141
118 1 9.02117 -6.25313 -1.4274 -4.61854
119 1 10.0351 -10.1417 -2.97846 -4.53505
120 1 10.4102 -7.53522 -0.0477575 -4.54072
121 1 12.3796 -10.0353 0.421427 -4.30863
122 1 12.9419 -7.78407 57.2308 -4.47253
123 1 11.4729 -9.04594 -1.56153 -4.48972
124 1 11.6338 -6.13474 1.48701 -4.57859
125 1 14.0878 -8.62933 1.44419 -4.68333
126 1 13.8597 -6.22125 -1.3754 -4.60128
127 1 14.8405 -10.2142 -2.80632 -4.34689
128 1 15.518 -7.32523 -0.0271321 -4.62817
129 1 16.6283 -6.93495 57.0904 -4.49886
130 1 16.5099 -8.93044 -1.53034 -4.43775
131 1 16.9569 -5.75473 1.02197 -4.11247
132 1 18.5496 -5.60195 57.2435 -3.96249
133 1 -18.4775 -5.31579 0.0552716 -4.19532
134 1 -17.6521 -2.5507 -2.36445 -4.92796
135 1 -18.9946 -3.01494 -0.373282 -4.33554
136 1 -17.5609 -1.89301 1.14414 -4.64075
137 1 -16.7977 -4.92922 1.69157 -4.44592
138 1 -16.366 -0.654893 -1.4967 -4.5589
139 1 -15.2735 -5.1301 -2.81283 -4.6175
140 1 -15.5664 -2.38004 0.0232473 -4.50457
141 1 -12.8292 -4.96091 -0.0856373 -4.54025
142 1 -12.8118 -2.41951 -3.13407 -4.55728
143 1 -14.0797 -3.47403 -1.55626 -4.45985
144 1 -14.0316 -1.18046 1.368 -4.53434
145 1 -11.4939 -3.9048 1.49284 -4.53533
146 1 -11.4164 -1.52346 -1.52023 -4.49753
147 1 -10.1647 -5.09673 -3.0031 -4.519
148 1 -10.1045 -2.77232 0.113247 -4.49925
149 1 -7.76218 -5.07897 0.231769 -4.5404
150 1 -7.69666 -2.37058 -3.17515 -4.50718
151 1 -8.80227 -3.84969 -1.49166 -4.45957
152 1 -9.00475 -1.19771 1.59442 -4.51637
153 1 -6.27673 -3.75045 1.4624 -4.57463
154 1 -6.56914 -1.03886 -1.54414 -4.55737
155 1 -5.13635 -5.26568 57.1069 -4.54345
156 1 -5.04387 -2.32059 -0.143945 -4.48174
157 1 -2.51215 -5.0429 -0.0163847 -4.55241
158 1 -2.49198 -2.41958 57.1666 -4.5571
159 1 -3.81074 -3.83946 -1.62519 -4.58022
160 1 -3.95782 -1.05119 1.69863 -4.49409
161 1 -1.15811 -3.59099 1.27745 -4.57193
162 1 -1.1652 -1.13373 -1.43755 -4.51995
163 1 -0.0545802 -5.04811 -3.01952 -4.55543
164 1 0.283576 -2.15498 0.00589594 -4.51488
165 1 2.41068 -4.94411 -0.321689 -4.48365
166 1 2.84499 -2.29943 -3.03515 -4.59627
167 1 1.23746 -3.50834 -1.66574 -4.52735
168 1 1.3328 -0.850637 1.76101 -4.4555
169 1 3.74812 -3.81398 1.50878 -4.4841
170 1 4.01469 -0.97651 -1.48634 -4.55256
171 1 5.19395 -4.91374 -2.96409 -4.57766
172 1 5.10687 -2.34839 0.152337 -4.57613
173 1 7.7564 -4.83353 -0.0354776 -4.56595
174 1 7.7758 -2.37721 -2.69603 -4.54737
175 1 6.31298 -3.61545 -1.3498 -4.54242
176 1 6.37724 -1.06914 1.73509 -4.5828
177 1 9.0286 -3.67176 1.5574 -4.54886
178 1 9.06091 -0.88424 -1.26767 -4.53405
179 1 10.2605 -5.00765 -2.99932 -4.56991
180 1 10.2357 -2.33002 0.140681 -4.51692
181 1 12.7958 -4.69893 0.0772162 -4.53132
182 1 12.5451 -2.48732 -2.83195 -4.50267
183 1 11.2262 -3.60201 -1.44391 -4.41437
184 1 11.4472 -1.07221 1.76215 -4.56243
185 1 14.2385 -3.7705 1.68953 -4.35766
186 1 13.9263 -1.4108 -1.13405 -4.50087
187 1 15.1836 -5.10715 57.3576 -4.55941
188 1 15.4393 -2.49389 0.203678 -4.53621
189 1 18.2922 -4.581 -0.673044 -4.56558
190 1 17.9932 -2.40482 57.1341 -4.67554
191 1 16.4832 -3.52794 -1.6511 -4.66355
192 1 16.712 -1.17249 1.61886 -4.55305
193 1 19.171 -2.5976 0.0749407 -3.72178
194 1 19.2777 -0.888509 -1.61865 -4.00192
195 1 -19.8172 -1.31494 -1.74702 -4.3346
196 1 -18.1192 0.37744 1.29535 -4.46115
197 1 -18.0047 2.32062 -2.59819 -4.36323
198 1 -18.3639 0.387071 -1.08376 -4.45334
199 1 -18.748 5.01072 2.484 -4.11585
200 1 -16.2468 1.47855 2.28589 -4.53374
201 1 -16.7049 3.64748 -1.01357 -4.31562
202 1 -14.9594 0.173438 56.9989 -4.58937
203 1 -15.2748 2.37564 0.234802 -4.41531
204 1 -12.6838 -0.0950211 -0.291138 -4.51779
205 1 -12.6594 2.84746 -3.09576 -4.56889
206 1 -13.8824 1.45501 -1.56794 -4.49034
207 1 -14.1277 3.88426 1.66815 -4.57572
208 1 -11.4437 1.23164 1.41222 -4.49178
209 1 -11.7163 4.16164 -1.35992 -4.50818
210 1 -10.3201 0.0835849 57.2537 -4.59125
211 1 -10.3237 2.72672 -0.0847846 -4.60511
212 1 -7.73523 0.246302 0.0849254 -4.53886
213 1 -7.61833 2.64369 57.205 -4.53649
214 1 -8.96984 1.43802 -1.56728 -4.57487
215 1 -8.94351 3.91762 1.40372 -4.57779
216 1 -6.4155 1.49342 1.57026 -4.546
217 1 -6.17328 3.82853 -1.48021 -4.55741
218 1 -5.01791 0.0445261 57.2236 -4.53023
219 1 -4.86801 2.54371 0.0383041 -4.55755
220 1 -2.44202 -0.0824034 0.241923 -4.52656
221 1 -2.37936 2.66758 57.2614 -4.56113
222 1 -3.5191 1.24705 -1.42017 -4.5462
223 1 -3.70625 3.87256 1.53582 -4.56216
224 1 -1.0964 1.29778 1.60983 -4.53311
225 1 -1.10896 4.10688 -1.46946 -4.60311
226 1 0.141373 0.200527 57.2925 -4.56656
227 1 0.0142238 2.82721 0.127773 -4.54212
228 1 2.64556 0.347785 -0.0165055 -4.48684
229 1 2.82741 2.71875 57.3582 -4.54849
230 1 1.31815 1.67291 -1.45941 -4.59161
231 1 1.59606 4.10156 1.44934 -4.55427
232 1 3.86884 1.42682 1.7114 -4.52872
233 1 4.05353 4.17608 -1.43504 -4.50096
234 1 5.51979 0.129399 -2.82321 -4.50391
235 1 5.10155 2.80442 0.1279 -4.56089
236 1 7.83498 0.279285 0.429257 -4.55266
237 1 7.66425 2.68932 57.3291 -4.48388
238 1 6.53925 1.43418 -1.14559 -4.53235
239 1 6.5607 4.17895 1.50473 -4.55145
240 1 9.07477 1.57152 1.97179 -4.57869
241 1 8.8788 3.97133 -1.33171 -4.49499
242 1 10.4003 0.179774 -2.85567 -4.51892
243 1 10.2033 2.77026 0.357985 -4.54284
244 1 12.9422 0.103375 0.265184 -4.5536
245 1 12.8135 2.98074 -2.79339 -4.57277
246 1 11.632 1.52663 -1.22009 -4.50442
247 1 11.6322 4.18264 1.6659 -4.61379
248 1 14.0938 1.30363 1.85099 -4.54381
249 1 14.0869 4.16805 -1.24881 -4.47231
250 1 15.195 0.109861 -2.4871 -4.5396
251 1 15.2891 2.76784 0.3245 -4.35071
252 1 18.0553 0.182191 0.0936977 -4.56555
253 1 17.4861 2.03412 56.77 -4.47401
254 1 16.7264 1.59835 -1.23593 -4.47742
255 1 16.8671 4.27681 1.32572 -4.93971
256 1 19.3922 0.974873 1.95076 -4.32165
257 1 19.1216 3.65445 -2.89788 -4.02366
258 1 19.6206 1.33938 56.7076 -3.8611
259 1 -18.0429 5.20938 0.162472 -3.97927
260 1 -17.9517 8.05031 56.5435 -4.46593
261 1 -18.3545 6.18809 -2.15123 -4.1415
262 1 -16.831 6.42773 1.88343 -4.98805
263 1 -16.6703 8.97923 -1.97184 -3.53079
264 1 -16.0884 5.2028 -2.67287 -5.33561
265 1 -15.9681 7.93936 0.133293 -4.33354
266 1 -13.1533 5.34904 0.0502951 -4.49922
267 1 -13.1651 7.65719 -2.90541 -4.51837
268 1 -14.6378 6.58081 -1.29535 -4.31651
269 1 -14.2801 8.96717 1.61343 -4.49458
270 1 -11.4382 6.37872 1.52217 -4.5048
271 1 -11.8123 8.99071 -1.60198 -4.55545
272 1 -10.3965 5.0594 -3.06876 -4.58006
273 1 -10.328 7.73879 -0.214621 -4.55509
274 1 -7.6143 5.12962 -0.0842703 -4.57017
275 1 -7.64656 7.85794 57.2207 -4.60364
276 1 -8.98716 6.34838 -1.61203 -4.61862
277 1 -8.92543 8.89864 1.36857 -4.49738
278 1 -6.36513 6.42528 1.43293 -4.58794
279 1 -6.21081 9.10577 -1.46729 -4.55659
280 1 -5.16801 5.08058 57.006 -4.55634
281 1 -4.98721 7.69873 -0.0745091 -4.59889
282 1 -2.59618 5.24537 -0.00198994 -4.53763
283 1 -2.49044 7.59602 -3.09261 -4.59393
284 1 -3.80887 6.29988 -1.61051 -4.54731
285 1 -3.62448 9.05495 1.35206 -4.5494
286 1 -1.1777 6.46893 1.45397 -4.55891
287 1 -1.26432 8.96193 -1.50694 -4.57338
288 1 0.452893 5.37162 57.3805 -4.50107
289 1 0.105377 7.81681 -0.0428859 -4.57367
290 1 3.00676 5.536 0.257901 -4.52873
291 1 2.80704 7.77241 57.1351 -4.52988
292 1 1.73593 6.62073 -1.32969 -4.49138
293 1 1.24615 9.07625 1.5782 -4.56748
294 1 4.26143 6.9129 1.69208 -4.55236
295 1 3.94076 9.1864 -1.56707 -4.54516
296 1 5.19662 5.34087 57.0864 -4.49306
297 1 5.45817 8.14808 -0.057075 -4.52325
298 1 7.88837 5.55862 0.126434 -4.58451
299 1 7.70612 7.45002 56.8203 -4.51908
300 1 6.49867 6.54089 -1.52625 -4.48636
301 1 6.66145 9.45047 1.50158 -4.45026
302 1 9.33249 7.02963 1.31345 -4.39671
303 1 8.82555 8.99746 -1.92489 -4.60209
304 1 10.1331 5.14115 57.183 -4.47827
305 1 10.6149 8.14427 -0.447587 -4.34987
306 1 12.9053 5.46777 0.128806 -4.47081
307 1 12.579 7.70268 56.7826 -4.51341
308 1 11.6394 6.42732 -1.65276 -4.54348
309 1 12.3157 9.60666 1.86022 -4.42246
310 1 14.4437 6.5177 1.5947 -4.52032
311 1 13.8347 8.82751 -1.85663 -4.30054
312 1 15.2117 5.4903 57.3519 -4.4175
313 1 15.9513 8.0404 0.471621 -4.48398
314 1 18.6196 4.6748 -0.207005 -3.84666
315 1 17.1 6.73764 57.0915 -4.56128
316 1 17.476 6.62878 -0.712152 -3.70507
317 1 16.8386 8.72111 2.70716 -4.25939
318 1 18.947 5.48231 1.99832 -4.19321
319 1 -15.6693 13.0627 2.99133 -4.18705
320 1 -15.3721 10.7483 -2.72147 -4.66774
321 1 -15.0322 13.173 0.704284 -4.07684
322 1 -12.8218 10.2076 0.240757 -4.56287
323 1 -13.05 13.0348 -2.79041 -4.82294
324 1 -14.0114 11.825 -0.990546 -4.28138
325 1 -13.3798 13.909 2.45855 -4.78419
326 1 -11.3938 11.3087 1.73265 -4.41111
327 1 -12.1253 14.5914 -1.14426 -4.17185
328 1 -10.312 10.425 57.2871 -4.59216
329 1 -10.7577 12.962 0.109805 -4.39454
330 1 -7.75556 10.3648 -0.0560902 -4.6036
331 1 -7.73429 12.7777 57.1352 -4.47809
332 1 -9.18556 11.7652 -1.39636 -4.48825
333 1 -9.19592 13.8279 1.54723 -4.42102
334 1 -6.3692 11.5793 1.40251 -4.61295
335 1 -6.4134 14.0951 -1.66441 -4.58354
336 1 -5.10888 10.2627 -3.17904 -4.54019
337 1 -5.08316 12.8656 -0.111491 -4.5178
338 1 -2.53738 10.457 -0.1286 -4.49535
339 1 -2.54788 13.0267 57.0886 -4.58938
340 1 -3.82372 11.6346 -1.64073 -4.56622
341 1 -4.00998 14.0781 1.49898 -4.40527
342 1 -1.51875 11.5719 1.71408 -4.49938
343 1 -1.29716 14.1285 -1.35578 -4.55363
344 1 0.242724 10.3705 -2.83659 -4.53309
345 1 -0.286183 12.7441 0.219879 -4.47903
346 1 2.64246 10.2918 0.0881862 -4.55563
347 1 2.38195 12.9025 57.362 -4.49746
348 1 1.18383 11.5704 -1.11489 -4.50181
349 1 1.03617 13.8981 1.8429 -4.58211
350 1 3.83156 11.7743 1.58901 -4.56318
351 1 3.7226 14.2019 -1.28215 -4.50741
352 1 5.18436 10.4027 56.9647 -4.53052
353 1 5.25549 13.0221 0.111993 -4.44975
354 1 7.94698 10.5014 -0.336801 -4.2986
355 1 7.14166 13.0461 56.8023 -4.38829
356 1 6.36583 11.7307 -1.6011 -4.52982
357 1 6.21314 14.5521 1.72877 -4.56806
358 1 9.56854 12.5072 2.04224 -4.48026
359 1 8.34272 14.297 -1.74286 -4.78299
360 1 10.1536 10.2464 56.6245 -4.4385
361 1 9.53762 12.4561 -0.390072 -4.70562
362 1 12.3075 9.92603 -0.513503 -4.9004
363 1 12.6048 12.6828 56.4474 -4.12294
364 1 11.2286 11.6255 -1.88499 -4.70909
365 1 11.1257 14.2563 2.37831 -4.53026
366 1 13.8196 11.1489 2.50239 -4.41083
367 1 12.9139 13.2107 -1.28966 -4.20428
368 1 15.0056 10.0649 56.6958 -4.116
369 1 14.1586 11.3889 -0.0240425 -4.26738
370 1 15.8212 9.93114 -1.12315 -4.25706
371 1 -13.7167 15.2071 0.553611 -4.03506
372 1 -12.3146 15.9672 2.71706 -4.11764
373 1 -9.7165 15.4285 56.8872 -4.44433
374 1 -8.14189 14.9571 -0.313061 -4.52995
375 1 -8.60785 17.529 56.5604 -4.4163
376 1 -9.39628 16.6938 -1.2878 -4.40003
377 1 -6.87142 16.1757 1.10598 -4.73181
378 1 -7.4739 18.1427 -1.54192 -3.58616
379 1 -5.3386 15.6392 57.0278 -4.46036
380 1 -5.67716 17.7071 -0.161926 -4.68931
381 1 -2.84201 15.3921 -0.118196 -4.5849
382 1 -2.77928 18.109 57.2493 -4.53618
383 1 -4.11593 16.6896 -1.59053 -4.47209
384 1 -5.19396 18.7182 1.91897 -4.04601
385 1 -1.5359 16.5197 1.42451 -4.54437
386 1 -1.2172 19.3404 -1.45698 -3.6183
387 1 -0.0339741 15.5876 57.3104 -4.55163
388 1 -0.286782 17.9871 0.0781428 -4.73756
389 1 2.27386 15.1949 0.256138 -4.56062
390 1 2.34388 18.5469 -2.38367 -4.31887
391 1 1.26367 16.8459 -1.24483 -4.5722
392 1 0.833295 19.3098 1.60824 -4.51853
393 1 3.55115 16.6012 1.52832 -4.49277
394 1 2.31841 19.9302 -0.283672 -4.14546
395 1 4.30006 15.7108 57.0341 -4.37164
396 1 4.15468 18.1815 0.124444 -4.37939
397 1 7.06715 16.1142 -0.956889 -4.40696
398 1 8.64805 17.5043 -2.02416 -4.31143
399 1 5.35497 17.4608 -2.0126 -4.40373
400 1 5.46277 19.2842 1.6782 -3.79977
401 1 7.86702 16.1441 1.34845 -4.43496
402 1 9.69915 14.81 56.4423 -4.23624
403 1 11.178 14.247 -0.0980484 -4.30038
404 1 10.2503 15.8065 -1.61402 -4.2574
405 1 0.77905 20.2869 -2.2432 -4.33843
406 1 -12.5047 -15.9894 2.18823 -4.25728
407 1 -7.87619 -17.8356 2.70258 -3.6276
408 1 -8.867 -16.7178 7.63206 -3.67711
409 1 -6.19964 -18.5987 8.40599 -4.11808
410 1 -6.43075 -17.0015 4.41239 -4.48939
411 1 -5.14667 -17.7135 6.36998 -4.49653
412 1 -2.73546 -17.994 3.18728 -4.45158
413 1 -3.5117 -19.1449 5.28055 -3.47977
414 1 -3.42186 -16.5343 7.39006 -4.4777
415 1 -1.8153 -19.0918 6.99275 -4.10625
416 1 -1.24162 -16.7796 4.50649 -4.66154
417 1 1.07184 -20.2152 1.06012 -4.08699
418 1 0.0480038 -18.4315 5.57939 -4.33044
419 1 2.79495 -17.9593 2.51047 -4.53098
420 1 0.936678 -19.1807 3.38491 -4.23633
421 1 1.06932 -16.7137 7.00926 -4.43723
422 1 4.36924 -19.2665 8.17221 -4.39401
423 1 3.76732 -16.8548 4.45195 -4.45915
424 1 5.17494 -18.2166 6.0088 -4.47412
425 1 7.82963 -18.2434 2.63298 -4.40252
426 1 7.23727 -18.5867 5.05492 -3.41523
427 1 6.00494 -16.5554 7.45125 -4.50879
428 1 8.86214 -17.0287 4.38773 -4.32267
429 1 12.8863 -14.9703 8.70832 -4.41496
430 1 -17.5056 -9.83116 4.96476 -3.97329
431 1 -15.4925 -11.9574 4.85651 -3.85158
432 1 -12.8007 -14.6289 4.05969 -4.05064
433 1 -12.8076 -12.7264 2.6422 -4.85416
434 1 -14.8732 -13.7499 3.45678 -4.37672
435 1 -14.3502 -11.5433 6.87465 -4.52806
436 1 -11.6285 -14.1492 6.53469 -4.23431
437 1 -11.727 -11.5323 4.3952 -4.4252
438 1 -10.1516 -15.6118 2.5111 -4.16137
439 1 -10.1304 -12.5926 5.65755 -4.6066
440 1 -7.75432 -15.6927 5.86345 -4.53514
441 1 -7.87386 -12.725 3.04683 -4.61679
442 1 -9.15355 -14.3012 4.22472 -4.37707
443 1 -9.15087 -11.3687 7.44577 -4.50896
444 1 -6.54116 -14.112 7.41532 -4.52642
445 1 -6.4496 -11.629 4.54025 -4.55461
446 1 -5.49945 -15.2323 3.18226 -4.52906
447 1 -5.15346 -12.89 6.056 -4.60673
448 1 -2.40455 -15.183 5.77826 -4.49609
449 1 -2.33882 -12.9187 3.04376 -4.60845
450 1 -3.91557 -14.1081 4.42452 -4.54283
451 1 -3.82414 -11.3947 7.4004 -4.5489
452 1 -1.3139 -13.8689 7.3978 -4.57071
453 1 -1.22798 -11.4127 4.5279 -4.58488
454 1 0.078177 -15.5842 3.03174 -4.56697
455 1 0.00289809 -12.6284 6.02765 -4.5645
456 1 2.51004 -15.3408 5.71643 -4.61119
457 1 2.48665 -12.6424 2.91705 -4.59645
458 1 1.18672 -13.9289 4.35536 -4.5928
459 1 1.29114 -11.3983 7.57531 -4.59227
460 1 3.70502 -13.9377 7.31578 -4.49742
461 1 3.76654 -11.5636 4.59264 -4.57402
462 1 5.26278 -15.4372 3.20571 -4.5567
463 1 5.27063 -12.7855 6.00757 -4.53859
464 1 7.92775 -15.7385 6.20644 -4.43942
465 1 7.50655 -12.9632 3.27767 -4.55377
466 1 6.4978 -14.3486 4.89041 -4.53944
467 1 6.36392 -11.5187 7.59452 -4.53934
468 1 8.98027 -13.8877 7.44916 -4.41301
469 1 8.84411 -11.533 4.55215 -4.60438
470 1 10.3629 -15.568 3.1077 -4.49181
471 1 10.4823 -12.7055 5.84299 -4.58285
472 1 13.3109 -14.6279 6.28687 -3.70511
473 1 13.2117 -12.8017 2.86061 -4.36278
474 1 11.7744 -14.0828 4.46961 -4.49328
475 1 11.7289 -11.3285 7.32626 -4.51134
476 1 13.26 -12.5835 8.54608 -4.65646
477 1 14.2897 -11.2689 4.32713 -4.5992
478 1 14.9676 -12.9317 5.93045 -3.62897
479 1 15.5229 -12.5597 8.29377 -4.49621
480 1 -18.0636 -7.89828 3.6791 -4.63997
481 1 -18.6886 -5.65124 8.84843 -3.98098
482 1 -16.8714 -9.21131 7.15971 -4.59712
483 1 -16.7738 -6.37647 4.88362 -4.69451
484 1 -15.7392 -10.1093 3.47454 -4.76297
485 1 -15.3791 -7.68186 6.28145 -4.66253
486 1 -12.8799 -10.0606 5.81839 -4.63623
487 1 -12.6351 -7.5952 3.06144 -4.49379
488 1 -14.2122 -8.60693 4.54258 -4.66396
489 1 -13.8889 -6.37348 7.52232 -4.53583
490 1 -11.9727 -8.95629 7.73766 -4.44272
491 1 -11.4488 -6.31801 4.63454 -4.57696
492 1 -10.2742 -10.2871 3.04271 -4.58121
493 1 -10.4843 -7.753 6.24118 -4.5519
494 1 -7.63065 -10.2586 5.94339 -4.55055
495 1 -7.72582 -7.68112 3.29047 -4.5806
496 1 -9.16123 -8.9813 4.69788 -4.57848
497 1 -8.97276 -6.48271 7.57856 -4.57521
498 1 -6.53253 -9.14188 7.75289 -4.50337
499 1 -6.36317 -6.34326 4.67354 -4.56207
500 1 -4.98027 -10.2189 3.22 -4.5605
501 1 -5.29884 -7.81391 6.16903 -4.52483
502 1 -2.62198 -10.12 5.88279 -4.58049
503 1 -2.36198 -7.52259 3.06779 -4.52211
504 1 -3.89878 -8.6927 4.48443 -4.56278
505 1 -3.81234 -6.41493 7.50848 -4.52822
506 1 -1.47764 -8.73579 7.44284 -4.52773
507 1 -0.86351 -6.15149 4.50135 -4.51583
508 1 0.185599 -10.0686 3.14462 -4.56854
509 1 0.138586 -7.6485 6.0916 -4.57541
510 1 2.66799 -10.1326 6.18464 -4.56761
511 1 2.62713 -7.46054 3.01742 -4.51536
512 1 1.46492 -8.74304 4.57317 -4.5136
513 1 1.41498 -6.23361 7.46237 -4.55887
514 1 3.95181 -8.86051 7.74645 -4.5668
515 1 4.06898 -6.2377 4.5751 -4.55168
516 1 5.08881 -10.0696 3.28899 -4.60162
517 1 5.27969 -7.59265 6.14127 -4.55307
518 1 7.76131 -10.2447 6.10625 -4.58307
519 1 7.7087 -7.46748 3.14114 -4.53566
520 1 6.53197 -8.84041 4.61994 -4.5779
521 1 6.56899 -6.25957 7.69139 -4.60322
522 1 9.03325 -8.78934 7.45415 -4.58017
523 1 9.05801 -6.16227 4.61445 -4.60117
524 1 10.1007 -10.1083 3.06398 -4.5788
525 1 10.4496 -7.44081 6.09969 -4.57651
526 1 13.014 -9.9916 5.83214 -4.5708
527 1 12.9601 -7.38693 3.03337 -4.4543
528 1 11.581 -8.76392 4.43994 -4.58388
529 1 11.7526 -6.13358 7.55379 -4.58177
530 1 14.3098 -9.01439 7.65088 -4.5311
531 1 14.4144 -6.39634 4.60866 -4.69706
532 1 15.5581 -9.85379 2.74201 -4.06087
533 1 15.5784 -7.30144 6.51352 -4.17612
534 1 17.5847 -6.65856 3.18102 -4.4183
535 1 16.1194 -8.10245 4.27314 -4.24837
536 1 17.0593 -6.45368 8.1822 -4.34825
537 1 18.7612 -5.44553 4.74353 -3.59461
538 1 -18.2026 -4.87892 6.04399 -4.04391
539 1 -17.2722 -3.19166 3.10524 -4.34674
540 1 -19.1921 -4.00876 4.10127 -4.65022
541 1 -19.6205 -1.81337 5.00405 -3.70034
542 1 -16.7797 -3.53312 7.23609 -4.59465
543 1 -17.1851 -1.21698 4.50982 -5.29126
544 1 -15.24 -5.77635 3.10756 -4.43764
545 1 -15.3737 -2.53054 5.60538 -4.21065
546 1 -12.9233 -4.95154 5.92187 -4.57005
547 1 -12.8125 -2.55096 2.88029 -4.58451
548 1 -14.1721 -3.90477 4.18571 -4.52063
549 1 -14.1172 -1.51596 7.38332 -4.46774
550 1 -11.474 -3.90054 7.36396 -4.55591
551 1 -11.5577 -1.45171 4.50317 -4.57894
552 1 -10.2544 -5.04186 3.09426 -4.55894
553 1 -10.1 -2.67837 5.92017 -4.57462
554 1 -7.68645 -5.11376 6.19836 -4.52565
555 1 -7.4179 -2.46402 3.05626 -4.53621
556 1 -8.70677 -3.87639 4.41842 -4.57966
557 1 -8.81969 -1.36192 7.50823 -4.52875
558 1 -6.42064 -3.82079 7.62694 -4.57342
559 1 -6.22298 -1.32518 4.66696 -4.56388
560 1 -5.17511 -5.1645 2.95944 -4.50293
561 1 -4.92913 -2.6844 6.11942 -4.5506
562 1 -2.38295 -5.12406 6.02349 -4.5533
563 1 -2.58092 -2.48699 2.9681 -4.52948
564 1 -3.74285 -3.86719 4.51332 -4.5605
565 1 -3.60035 -1.28337 7.4536 -4.55149
566 1 -1.26152 -3.64271 7.54673 -4.60681
567 1 -1.2579 -1.45743 4.69942 -4.5684
568 1 0.239051 -4.87835 2.74224 -4.50307
569 1 0.324411 -2.44577 6.14945 -4.50062
570 1 2.64576 -4.9481 6.04849 -4.49808
571 1 2.7699 -2.21758 2.99791 -4.56781
572 1 1.46061 -3.6755 4.40117 -4.50623
573 1 1.32233 -1.01 7.67255 -4.58647
574 1 3.80554 -3.78742 7.72185 -4.53873
575 1 3.89473 -1.20648 4.78422 -4.48746
576 1 5.20477 -4.86282 2.97559 -4.51989
577 1 5.11342 -2.51567 6.33967 -4.52884
578 1 7.81753 -4.88896 6.15701 -4.50958
579 1 7.81764 -2.33443 3.15158 -4.54479
580 1 6.42609 -3.69458 4.66762 -4.52095
581 1 6.65637 -1.52302 7.74046 -4.54842
582 1 9.10128 -3.83875 7.71265 -4.49247
583 1 9.0299 -1.22842 4.8229 -4.59419
584 1 10.3946 -4.87334 3.07952 -4.54343
585 1 10.5171 -2.3898 6.30176 -4.54164
586 1 13.0507 -4.78479 6.10066 -4.32192
587 1 12.9895 -2.38076 3.10154 -4.55617
588 1 11.6951 -3.65431 4.66663 -4.5532
589 1 11.8128 -0.920094 7.7745 -4.56479
590 1 14.3573 -3.57815 7.61572 -4.47799
591 1 14.0881 -1.18072 4.689 -4.50407
592 1 15.7701 -5.00148 3.09982 -4.70666
593 1 15.8118 -2.26965 6.04735 -4.34999
594 1 17.8171 -4.72055 6.68909 -3.4916
595 1 18.4262 -2.51974 2.45503 -4.23358
596 1 17.2236 -3.61814 4.56853 -4.79676
597 1 16.8966 -0.65677 7.33155 -4.3972
598 1 19.0665 -1.08973 8.28755 -4.37379
599 1 19.3426 -0.616374 3.71481 -4.35161
600 1 -19.1816 -0.0544014 3.44386 -4.12626
601 1 -17.5284 0.384547 6.2922 -4.45486
602 1 -17.7782 2.96117 3.35329 -4.50872
603 1 -18.9211 1.8274 5.01578 -4.48616
604 1 -18.4926 3.50559 6.77481 -4.20217
605 1 -16.1608 1.6121 7.74165 -4.61659
606 1 -16.866 4.26615 5.11523 -5.01798
607 1 -15.1844 -0.336313 3.32564 -4.27163
608 1 -15.1236 2.77604 5.86232 -4.35135
609 1 -12.8596 -0.126558 5.91364 -4.60867
610 1 -12.6343 2.60905 2.91546 -4.56524
611 1 -13.8764 1.37664 4.4298 -4.51933
612 1 -14.0058 4.01415 7.53123 -4.59824
613 1 -11.4681 1.12636 7.44258 -4.54802
614 1 -11.4084 3.86054 4.50727 -4.52447
615 1 -10.3553 -0.019297 2.98145 -4.52393
616 1 -10.2702 2.54631 6.04213 -4.57784
617 1 -7.53373 0.0207037 6.07666 -4.55692
618 1 -7.80187 2.67646 3.03739 -4.5833
619 1 -9.0615 1.24349 4.51295 -4.54546
620 1 -8.73735 3.76163 7.50035 -4.52833
621 1 -6.20022 1.32412 7.47494 -4.56067
622 1 -6.37173 3.99716 4.40764 -4.58329
623 1 -5.26811 0.173711 3.16437 -4.55392
624 1 -5.13742 2.73886 5.9273 -4.58082
625 1 -2.55451 0.0608289 5.96608 -4.49627
626 1 -2.43078 2.56349 2.98103 -4.57854
627 1 -3.78927 1.39948 4.61086 -4.56695
628 1 -3.76385 3.95696 7.47001 -4.52255
629 1 -1.47212 1.40578 7.5543 -4.50373
630 1 -1.1413 3.9153 4.55578 -4.57284
631 1 0.0375684 0.207216 3.43033 -4.53454
632 1 -0.06437 2.64803 6.20355 -4.60409
633 1 2.76544 0.165447 6.24566 -4.60684
634 1 2.73263 2.92381 3.16756 -4.51058
635 1 1.41981 1.53109 4.80238 -4.55551
636 1 1.32697 4.12444 7.39326 -4.51101
637 1 4.00489 1.557 7.67255 -4.59975
638 1 4.09149 4.09771 4.68578 -4.56368
639 1 5.09643 0.199107 3.35284 -4.5473
640 1 5.38876 2.95704 6.21451 -4.55068
641 1 7.6872 0.101427 6.268 -4.56159
642 1 7.6366 3.02741 3.24128 -4.5599
643 1 6.44799 1.56172 4.76397 -4.50971
644 1 6.5139 4.39686 7.73919 -4.54507
645 1 9.00508 1.36218 7.7385 -4.57452
646 1 8.95887 4.2296 4.67696 -4.47649
647 1 10.3376 0.233462 3.42829 -4.58038
648 1 10.1105 2.84114 6.23363 -4.5409
649 1 12.9835 0.390674 6.25773 -4.49861
650 1 12.8377 2.80038 3.15731 -4.56915
651 1 11.6005 1.64946 4.80572 -4.59272
652 1 11.5808 3.92597 7.70274 -4.51492
653 1 14.1885 1.45106 7.97801 -4.50843
654 1 14.1075 4.14674 4.73275 -4.53288
655 1 15.4397 0.0410127 3.29122 -4.6102
656 1 15.2948 2.63944 6.22623 -4.45848
657 1 17.9074 0.28544 5.44147 -4.66152
658 1 17.7306 2.42907 2.62375 -4.52643
659 1 16.5204 1.80427 4.43274 -4.51912
660 1 16.8349 3.94312 7.63107 -4.42967
661 1 19.4575 1.89824 6.16096 -4.47742
662 1 19.3228 3.71474 3.55709 -4.54035
663 1 20.4522 1.58716 4.01764 -4.1879
664 1 -18.7233 5.86476 7.21129 -4.34305
665 1 -17.5666 7.99897 3.55526 -3.42036
666 1 -18.3791 6.00941 4.70169 -4.19423
667 1 -16.501 6.66973 7.37765 -4.70504
668 1 -16.2475 9.52477 4.81853 -4.58219
669 1 -15.3914 5.03675 3.30094 -4.24884
670 1 -15.0287 7.96917 6.05447 -4.56038
671 1 -12.6017 5.13415 6.02583 -4.58831
672 1 -12.8084 7.7031 2.95733 -4.55733
673 1 -13.9421 6.49963 4.60036 -4.59695
674 1 -13.8986 9.00376 7.81992 -4.62283
675 1 -11.3292 6.38638 7.59848 -4.53631
676 1 -11.5452 8.95827 4.59257 -4.4848
677 1 -10.1597 5.18143 3.00804 -4.5423
678 1 -10.0777 7.5976 6.03111 -4.53664
679 1 -7.70927 5.19534 5.98843 -4.54088
680 1 -7.53254 7.88187 2.94115 -4.49847
681 1 -8.82749 6.50242 4.41613 -4.55657
682 1 -8.74287 8.85797 7.48682 -4.50977
683 1 -6.42841 6.53502 7.52887 -4.56958
684 1 -6.29065 9.04512 4.59102 -4.47766
685 1 -5.01088 5.22343 2.89782 -4.52461
686 1 -4.99539 7.80366 6.21826 -4.48869
687 1 -2.56438 5.31846 5.83653 -4.5286
688 1 -2.45042 7.82942 3.11395 -4.49904
689 1 -3.91851 6.48021 4.44541 -4.46915
690 1 -3.78362 9.19159 7.57919 -4.55943
691 1 -1.34746 6.41383 7.57094 -4.55129
692 1 -1.21742 9.17453 4.76449 -4.52179
693 1 0.100407 5.19099 2.97248 -4.58647
694 1 -0.0803786 7.72927 6.11362 -4.50602
695 1 2.61851 5.52857 5.9236 -4.57882
696 1 2.68982 7.96057 3.1179 -4.55542
697 1 1.23475 6.68893 4.42633 -4.56417
698 1 1.20613 9.06364 7.79116 -4.54796
699 1 3.95335 6.68622 7.50541 -4.51349
700 1 3.86748 9.23928 4.73368 -4.5322
701 1 5.39041 5.46421 3.13259 -4.58744
702 1 5.37515 8.19134 6.15128 -4.50365
703 1 7.78357 5.73134 6.18415 -4.55988
704 1 7.94669 8.06066 2.88583 -4.50656
705 1 6.63412 6.92313 4.47657 -4.51311
706 1 6.81714 9.4185 7.76745 -4.44277
707 1 9.30578 6.82835 7.68351 -4.45488
708 1 9.14012 9.23379 4.58955 -4.59477
709 1 9.97653 5.39148 2.85883 -4.46926
710 1 10.5648 8.07479 6.05812 -4.3701
711 1 12.7979 5.4552 6.14031 -4.47678
712 1 12.8118 7.5455 3.02235 -4.50911
713 1 11.2637 6.43433 4.53136 -4.53183
714 1 12.1539 9.74848 8.58621 -4.46498
715 1 13.9842 6.69218 7.79556 -4.32526
716 1 13.8155 8.35109 4.9933 -4.30263
717 1 15.5801 5.24587 3.1754 -4.2429
718 1 15.7026 7.89101 6.5263 -4.90236
719 1 18.392 4.02651 5.75945 -4.31762
720 1 18.8136 7.40542 3.46077 -4.13929
721 1 16.6207 6.96697 4.37037 -4.8062
722 1 17.0066 9.93974 8.31048 -3.68114
723 1 18.6152 6.49783 5.71018 -4.12869
724 1 -15.7703 11.2925 6.33235 -4.09771
725 1 -15.0944 10.7038 3.09164 -4.44276
726 1 -15.06 13.2202 5.2829 -4.25381
727 1 -12.3535 10.1925 6.47433 -4.41916
728 1 -11.8967 12.4218 3.76296 -3.95825
729 1 -13.7014 11.3233 4.9189 -5.03301
730 1 -13.3903 14.2122 6.54143 -4.05283
731 1 -10.9902 11.6734 7.65394 -4.63579
732 1 -11.2447 14.1843 5.2967 -5.33746
733 1 -10.0706 9.94477 3.08772 -4.51352
734 1 -9.65992 12.6349 6.05096 -4.31289
735 1 -7.45241 10.2511 6.25127 -4.49848
736 1 -7.61644 12.8325 2.9476 -4.51528
737 1 -8.73448 11.2825 4.50383 -4.45964
738 1 -8.26875 14.037 7.28632 -4.55335
739 1 -6.01792 11.7133 7.58764 -4.48559
740 1 -6.35903 14.219 4.38122 -4.63225
741 1 -5.06361 10.1985 2.82217 -4.46887
742 1 -5.05058 13.1149 5.99135 -4.47383
743 1 -2.4717 10.5793 6.24979 -4.50335