ITEM: TIMESTEP
88000
ITEM: NUMBER OF ATOMS
4050
ITEM: BOX BOUNDS ss ss pp
-2.1145971276386280e+01 2.1068982152103580e+01
-2.1581701946025994e+01 2.1214430758657389e+01
-1.1948200000000002e+00 5.5504820000000002e+01
ITEM: ATOMS id type x y z c_peratom
1 1 -12.3434 -15.9258 0.803069 -4.20607
2 1 -8.12032 -18.3467 -0.333787 -4.59992
3 1 -9.30814 -17.4444 2.46265 -4.55592
4 1 -7.74629 -19.2844 1.98057 -4.31607
5 1 -6.54229 -16.8586 0.370532 -4.66876
6 1 -5.54326 -18.5983 1.5289 -4.67942
7 1 -2.82818 -18.8316 55.3472 -4.63942
8 1 -4.82499 -19.5691 -0.461247 -3.71182
9 1 -3.92352 -17.568 2.90325 -4.41866
10 1 -0.656287 -19.7805 3.52821 -4.26499
11 1 -1.62214 -17.2339 -0.077666 -4.47722
12 1 0.409202 -20.3037 0.407866 -4.56638
13 1 -0.375172 -18.4757 1.58335 -4.63441
14 1 3.27671 -18.1728 55.1516 -4.66459
15 1 2.50222 -19.2528 0.276622 -3.87206
16 1 1.28366 -17.0086 2.54109 -4.58693
17 1 3.58106 -19.706 2.24055 -4.40449
18 1 4.20671 -16.7098 -0.021357 -4.71586
19 1 5.45466 -18.2099 1.24229 -4.41013
20 1 6.96461 -18.3827 -0.523091 -4.14367
21 1 9.79676 -18.0365 2.4238 -3.87943
22 1 6.49808 -16.6381 2.70776 -4.6441
23 1 9.16759 -17.3852 0.142642 -4.42655
24 1 11.7678 -16.9224 2.71354 -3.64923
25 1 -15.1383 -13.0797 0.838427 -4.2036
26 1 -15.6699 -14.789 2.34592 -4.0015
27 1 -14.1932 -16.5663 2.11177 -4.0775
28 1 -12.8353 -13.2384 55.3086 -4.61164
29 1 -14.0932 -14.7806 -0.185262 -4.29369
30 1 -14.2814 -12.0513 2.84345 -4.58411
31 1 -11.4883 -14.7852 2.66129 -4.93037
32 1 -11.6951 -11.9125 0.134684 -4.5407
33 1 -10.3961 -16.0845 -1.07365 -4.31596
34 1 -10.278 -13.3464 1.20806 -4.35705
35 1 -7.80897 -15.6959 1.91277 -4.56946
36 1 -7.68685 -13.1832 -1.37425 -4.55256
37 1 -8.86818 -14.6478 0.0209446 -4.62041
38 1 -9.28619 -12.1559 2.9282 -4.52995
39 1 -6.43813 -14.5259 3.21881 -4.53415
40 1 -6.84704 -11.9349 0.405181 -4.5772
41 1 -5.0991 -15.9751 55.235 -4.48366
42 1 -5.31163 -13.3491 1.54984 -4.56799
43 1 -2.82977 -16.0053 1.50233 -4.58456
44 1 -2.42046 -13.465 55.2798 -4.51448
45 1 -4.05704 -14.615 0.0222117 -4.54309
46 1 -4.00726 -11.861 2.89435 -4.60595
47 1 -1.50157 -14.5107 2.82845 -4.58911
48 1 -1.23397 -11.9462 0.180593 -4.54691
49 1 0.0147502 -16.0907 55.0227 -4.48762
50 1 0.0334954 -13.2496 1.60193 -4.50041
51 1 2.51472 -15.5732 1.07152 -4.49567
52 1 2.56273 -13.169 55.3379 -4.5692
53 1 0.955608 -14.4342 -0.252835 -4.56079
54 1 1.31184 -11.5534 2.99099 -4.51516
55 1 3.75426 -14.3761 2.88178 -4.54865
56 1 3.91683 -11.7875 0.113687 -4.5803
57 1 5.39643 -15.4108 55.09 -4.47431
58 1 5.30426 -12.9673 1.66331 -4.56238
59 1 8.07762 -15.6296 1.35195 -4.6149
60 1 7.93894 -13.17 55.3984 -4.5905
61 1 6.51052 -14.2788 0.131231 -4.57479
62 1 6.68989 -11.6233 3.24904 -4.571
63 1 9.13995 -14.537 3.11604 -4.553
64 1 9.23139 -11.8044 0.237128 -4.54506
65 1 10.7318 -16.0208 55.5125 -4.42918
66 1 10.3118 -12.8303 1.96615 -4.4928
67 1 13.023 -15.831 0.946633 -4.52451
68 1 12.6807 -12.7853 -0.413332 -4.18007
69 1 11.2597 -14.3879 0.491294 -4.61563
70 1 11.7632 -11.8766 3.5071 -4.53969
71 1 14.3766 -14.092 2.07739 -4.07989
72 1 14.3256 -11.8294 1.10735 -5.3603
73 1 16.2248 -13.259 0.830303 -4.14891
74 1 16.7688 -11.2362 1.89834 -4.10097
75 1 -18.3623 -7.61465 54.9674 -4.24164
76 1 -18.6244 -6.04091 3.99274 -4.27619
77 1 -17.1712 -8.97068 3.44705 -3.64866
78 1 -17.3175 -6.60591 0.281598 -4.4033
79 1 -15.7231 -11.0521 -1.15217 -4.01463
80 1 -16.0383 -8.17053 1.62342 -4.5976
81 1 -13.0289 -10.5252 1.57354 -4.5312
82 1 -13.3275 -7.95084 55.4076 -4.54737
83 1 -14.6725 -9.43998 0.183625 -4.62426
84 1 -14.7317 -6.78513 2.90239 -4.46116
85 1 -11.883 -9.0154 2.98646 -4.56312
86 1 -12.1578 -6.58499 0.179888 -4.61515
87 1 -10.4969 -10.4685 55.4728 -4.5707
88 1 -10.5459 -7.77768 1.54644 -4.60147
89 1 -7.98344 -10.4612 1.8149 -4.57396
90 1 -7.83842 -7.8455 -1.12909 -4.60869
91 1 -9.14807 -9.23542 0.172976 -4.5832
92 1 -9.35275 -6.54185 3.16085 -4.56325
93 1 -6.50949 -9.14193 3.24306 -4.53941
94 1 -6.55236 -6.52132 0.285637 -4.60243
95 1 -5.25106 -10.6922 -0.94187 -4.57928
96 1 -5.26099 -7.93518 1.7006 -4.55017
97 1 -2.49336 -10.5695 1.59501 -4.58676
98 1 -2.44919 -7.68678 -1.20565 -4.53621
99 1 -3.70513 -9.18575 0.16485 -4.55634
100 1 -4.10592 -6.3851 3.14677 -4.60719
101 1 -1.51878 -8.9359 3.06962 -4.56781
102 1 -1.18703 -6.32692 0.223655 -4.60553
103 1 -0.166946 -10.463 55.4858 -4.563
104 1 -0.0129055 -7.72488 1.66834 -4.62107
105 1 2.7087 -10.3454 1.63265 -4.57976
106 1 2.49483 -7.82528 -1.18007 -4.62097
107 1 1.16717 -9.15507 0.220839 -4.59011
108 1 1.24956 -6.23832 3.02483 -4.58359
109 1 3.96652 -9.05915 3.12499 -4.57295
110 1 4.01348 -6.3812 0.0757305 -4.56933
111 1 5.27242 -10.5297 55.4052 -4.58316
112 1 5.27468 -7.78415 1.60241 -4.60508
113 1 7.93874 -10.3931 1.68482 -4.59488
114 1 7.79935 -7.73082 -1.18439 -4.59807
115 1 6.5632 -9.15929 0.243669 -4.58898
116 1 6.74632 -6.66459 2.99406 -4.59617
117 1 9.34156 -9.23525 3.16763 -4.57576
118 1 9.21094 -6.52754 0.333405 -4.58598
119 1 10.6337 -10.4308 -1.12195 -4.61571
120 1 10.5549 -7.74696 1.81377 -4.59273
121 1 12.8543 -10.2577 2.18247 -4.37973
122 1 13.151 -7.86686 -1.07347 -4.53572
123 1 11.8874 -9.01704 0.415315 -4.53036
124 1 12.1521 -6.51792 3.07913 -4.56772
125 1 14.6105 -8.97107 3.27029 -4.67151
126 1 14.4226 -6.58424 0.521633 -4.6249
127 1 15.1808 -10.6836 -0.853512 -4.37995
128 1 16.0127 -7.81088 1.67999 -4.59169
129 1 18.1573 -8.49267 -1.40294 -3.52175
130 1 16.9218 -9.52104 0.22122 -4.60985
131 1 17.3188 -6.22941 2.78162 -4.59719
132 1 19.0384 -6.36612 -0.838448 -3.49862
133 1 -18.3495 -5.0126 1.90139 -4.44836
134 1 -18.6203 -2.44736 -0.567286 -4.86405
135 1 -19.8795 -3.09888 1.40554 -4.29007
136 1 -18.6083 -1.63684 2.67852 -4.5224
137 1 -16.3746 -4.04936 2.76225 -4.39729
138 1 -17.6119 -0.760192 0.71637 -4.81462
139 1 -16.0976 -5.17097 -1.16049 -4.6423
140 1 -15.7715 -2.47985 1.14836 -4.28827
141 1 -13.3777 -5.24364 1.7433 -4.51878
142 1 -13.2119 -2.48454 -1.30514 -4.55778
143 1 -14.4135 -3.9128 -0.0288612 -4.54406
144 1 -14.4206 -1.55585 2.93322 -4.56907
145 1 -11.9588 -4.11713 3.22534 -4.58443
146 1 -11.9575 -1.4974 0.408652 -4.52019
147 1 -10.7183 -5.16734 -1.13273 -4.58157
148 1 -10.6487 -2.7597 1.81841 -4.5582
149 1 -7.94935 -5.33719 1.82116 -4.54748
150 1 -8.16054 -2.57924 -1.21648 -4.54894
151 1 -9.24324 -3.95977 0.366641 -4.61691
152 1 -9.01833 -1.46622 3.08372 -4.54353
153 1 -6.7778 -3.77291 3.03704 -4.5998
154 1 -6.74381 -1.38688 0.0382521 -4.57245
155 1 -5.24734 -5.17882 -1.08455 -4.60404
156 1 -5.37273 -2.50911 1.66982 -4.5578
157 1 -2.6796 -5.18249 1.66133 -4.58782
158 1 -2.6433 -2.73111 -1.19447 -4.56391
159 1 -3.95329 -3.81532 0.338751 -4.6084
160 1 -4.09902 -1.09836 2.99606 -4.59335
161 1 -1.42369 -3.75286 3.00805 -4.58703
162 1 -1.3158 -1.29248 0.190985 -4.615
163 1 0.199352 -5.12114 -1.25116 -4.57303
164 1 0.0855619 -2.59787 1.47594 -4.57922
165 1 2.8364 -5.08589 1.76265 -4.58577
166 1 2.73078 -2.38422 55.4516 -4.55102
167 1 1.5698 -3.79445 0.176022 -4.58734
168 1 1.417 -1.20736 3.01886 -4.55536
169 1 4.13931 -3.65345 3.10254 -4.61577
170 1 4.09971 -1.06784 0.120187 -4.60116
171 1 5.4061 -4.9911 -1.26765 -4.57906
172 1 5.44243 -2.2652 1.63793 -4.60606
173 1 8.04232 -5.15222 1.7683 -4.62639
174 1 7.93077 -2.38923 -0.881732 -4.59052
175 1 6.60405 -3.88043 0.374422 -4.57368
176 1 6.73776 -0.954348 3.07826 -4.60933
177 1 9.40923 -3.83515 3.21023 -4.57969
178 1 9.47104 -1.0047 0.407652 -4.56966
179 1 10.4257 -5.04032 -1.09166 -4.57682
180 1 10.6761 -2.52411 1.70452 -4.59692
181 1 13.2471 -4.86842 1.72192 -4.52612
182 1 13.3527 -2.46939 -1.2037 -4.58503
183 1 11.9709 -3.78203 0.10593 -4.57756
184 1 11.8799 -1.09687 3.07105 -4.53787
185 1 14.5423 -3.76717 3.27373 -4.57528
186 1 14.4594 -1.24006 0.595779 -4.5646
187 1 15.7955 -5.36608 -0.967648 -4.48455
188 1 15.9521 -2.60245 1.90312 -4.55681
189 1 18.6627 -4.95998 1.14079 -4.65688
190 1 18.4524 -2.57759 -1.22095 -4.71241
191 1 17.011 -3.74055 0.175299 -4.62574
192 1 17.1809 -0.9254 2.93193 -4.63534
193 1 19.582 -2.83499 1.80976 -3.59754
194 1 19.7555 -1.12902 0.158298 -4.16915
195 1 -20.6755 -1.30687 0.0082942 -4.33731
196 1 -19.5836 0.445586 3.10312 -4.41416
197 1 -18.9277 2.66232 -0.807385 -4.28943
198 1 -19.4972 0.726045 0.646924 -4.20637
199 1 -19.131 4.36037 3.87566 -3.63138
200 1 -17.4173 1.21426 3.42965 -4.57615
201 1 -17.4491 3.70219 0.770542 -4.38106
202 1 -16.2472 0.117883 -1.15409 -4.42273
203 1 -15.9943 2.52825 2.03567 -4.48356
204 1 -13.2379 0.0443273 1.68122 -4.60098
205 1 -13.4432 2.72774 -1.07526 -4.61299
206 1 -14.7924 1.39021 0.275097 -4.55618
207 1 -14.5458 3.88225 3.22167 -4.56864
208 1 -11.8959 1.32867 3.10071 -4.59311
209 1 -11.9136 3.90934 0.185332 -4.61546
210 1 -11.0175 0.0173147 -1.09048 -4.57425
211 1 -10.5919 2.61947 1.62459 -4.59978
212 1 -8.04556 0.0695965 1.5536 -4.54973
213 1 -7.99605 2.64434 55.4569 -4.56014
214 1 -9.36421 1.33724 0.095072 -4.59269
215 1 -9.3272 4.06909 3.01857 -4.59429
216 1 -6.76803 1.49101 2.9569 -4.56425
217 1 -6.68511 3.99786 0.0770974 -4.61849
218 1 -5.34692 -0.033695 -1.37135 -4.60871
219 1 -5.25549 2.72903 1.43753 -4.60212
220 1 -2.61156 0.0810132 1.57804 -4.60041
221 1 -2.65882 2.65589 -1.46589 -4.61781
222 1 -3.98138 1.30774 0.0253129 -4.62472
223 1 -3.85726 4.09018 2.82734 -4.53563
224 1 -1.23335 1.48298 2.87112 -4.59406
225 1 -1.24998 3.92996 0.0541055 -4.58821
226 1 -0.00242696 0.0192242 -1.2892 -4.56366
227 1 0.257504 2.71521 1.54189 -4.58914
228 1 2.76627 0.107873 1.64056 -4.61654
229 1 2.78754 2.84115 55.5938 -4.58552
230 1 1.43061 1.31181 0.148756 -4.6029
231 1 1.40568 4.08082 3.08954 -4.55635
232 1 3.99 1.59833 3.01463 -4.60196
233 1 4.01791 4.24482 0.330764 -4.61499
234 1 5.40932 0.363527 -1.17854 -4.6177
235 1 5.44285 2.90607 1.69613 -4.6233
236 1 8.21158 0.366788 1.79374 -4.51337
237 1 7.93511 2.78298 -1.31653 -4.5701
238 1 6.82089 1.47119 0.395026 -4.52603
239 1 6.93971 4.20263 3.10275 -4.58427
240 1 9.4984 1.59234 3.15519 -4.56603
241 1 9.13532 4.09261 0.130819 -4.59749
242 1 10.7873 0.223877 -0.968595 -4.53616
243 1 10.6017 3.02533 1.6599 -4.59641
244 1 13.1811 0.370227 1.80799 -4.61564
245 1 13.4527 2.74631 -1.33445 -4.52629
246 1 12.1175 1.82632 0.248752 -4.56054
247 1 11.9805 4.53489 3.01755 -4.57513
248 1 14.5768 1.80361 3.04379 -4.61569
249 1 14.567 4.36219 0.0145348 -4.41247
250 1 15.5975 0.121473 -0.853011 -4.5098
251 1 15.9359 3.25021 1.66751 -4.36724
252 1 18.6875 0.262933 1.69837 -4.53056
253 1 18.0651 1.9798 55.2462 -4.5474
254 1 17.0457 1.42905 0.502433 -4.56389
255 1 17.4579 4.66305 2.85693 -4.88336
256 1 20.0973 1.06427 3.4071 -4.29684
257 1 19.7581 3.61707 -0.921294 -4.3479
258 1 20.3344 1.30022 55.3499 -3.73083
259 1 -18.7001 5.53773 1.77833 -4.3183
260 1 -17.984 8.2664 54.6726 -4.45333
261 1 -18.5975 6.53986 -0.526947 -4.19657
262 1 -17.0539 6.45384 3.21658 -4.68216
263 1 -17.1441 9.08908 -0.0102042 -3.75227
264 1 -16.4854 5.20771 -0.892367 -5.32022
265 1 -15.8442 7.89744 1.61941 -4.59908
266 1 -13.3203 5.11852 1.6378 -4.58887
267 1 -13.3047 7.97631 -1.16727 -4.5847
268 1 -14.6226 6.44322 0.226247 -4.33105
269 1 -14.527 9.12907 3.19197 -4.52464
270 1 -11.8379 6.38755 2.99757 -4.57263
271 1 -11.8222 9.21164 0.172163 -4.58375
272 1 -10.6626 5.35276 55.5491 -4.51402
273 1 -10.5351 7.85422 1.71047 -4.60719
274 1 -7.80385 5.33717 1.62341 -4.60062
275 1 -7.9029 7.77691 55.4246 -4.59794
276 1 -9.23464 6.50892 0.167587 -4.58421
277 1 -9.08748 9.28067 2.95292 -4.57385
278 1 -6.27209 6.69995 2.91953 -4.58658
279 1 -6.46524 9.20571 -0.0263063 -4.5796
280 1 -5.20326 5.33817 -1.22338 -4.59968
281 1 -5.0798 8.07348 1.50457 -4.54932
282 1 -2.48885 5.31668 1.52494 -4.54778
283 1 -2.63983 8.07958 55.432 -4.634
284 1 -3.83539 6.63982 0.170611 -4.60797
285 1 -3.82927 9.24801 3.02286 -4.58312
286 1 -1.32364 6.60021 3.04095 -4.55149
287 1 -1.15043 9.32571 0.0857356 -4.59411
288 1 0.0938359 5.39248 55.4568 -4.6371
289 1 0.00422602 8.01264 1.60192 -4.59463
290 1 2.67151 5.56106 1.6881 -4.60403
291 1 2.79453 8.20839 55.5214 -4.57849
292 1 1.47744 6.79106 0.102261 -4.59612
293 1 1.37144 9.35861 3.0314 -4.61045
294 1 4.24659 6.82334 3.0062 -4.58003
295 1 3.94877 9.72224 0.233932 -4.60186
296 1 5.38768 5.58837 55.6301 -4.58256
297 1 5.36312 8.44844 1.59249 -4.60253
298 1 7.94685 5.68109 1.47178 -4.56214
299 1 8.275 8.13466 55.3483 -4.54289
300 1 6.70862 7.15715 0.12611 -4.61678
301 1 6.84745 9.82286 2.81471 -4.60924
302 1 9.28993 7.03839 2.72453 -4.52955
303 1 9.42784 9.62084 0.0433169 -4.54899
304 1 10.6641 5.38852 55.4832 -4.59909
305 1 10.8091 8.43749 1.49429 -4.38627
306 1 13.2059 5.64512 1.33014 -4.57562
307 1 13.2227 7.95263 54.7904 -4.5122
308 1 11.9554 7.06258 -0.0792953 -4.56845
309 1 12.1723 9.84738 2.87673 -4.89044
310 1 14.6272 7.18412 2.43896 -4.47589
311 1 14.5963 9.55847 -0.854505 -4.40651
312 1 15.8874 5.97022 -1.17621 -4.85644
313 1 16.3393 8.46253 1.65749 -4.35733
314 1 18.6066 4.89508 0.779542 -3.97371
315 1 17.9397 6.95398 54.5879 -4.34178
316 1 17.6137 6.94216 0.201609 -4.30653
317 1 17.2325 8.7807 3.82992 -4.14352
318 1 19.6619 5.70112 3.12714 -4.07167
319 1 -16.5397 13.028 4.10782 -4.16793
320 1 -15.7918 10.7867 -0.818841 -4.67079
321 1 -15.7983 13.7701 1.90787 -4.19941
322 1 -13.2005 10.3773 1.79663 -4.61087
323 1 -13.3006 13.0041 -0.885972 -4.71941
324 1 -14.5888 11.9454 0.744506 -4.56003
325 1 -14.2311 13.9151 3.74065 -4.81588
326 1 -11.6766 11.7518 3.06046 -4.55478
327 1 -12.3074 14.5936 0.509711 -4.66123
328 1 -10.463 10.7439 55.5947 -4.58751
329 1 -10.6688 13.2154 1.48444 -4.57659
330 1 -7.76135 10.4779 1.50203 -4.57526
331 1 -7.94571 13.4941 55.2522 -4.52347
332 1 -9.02041 11.9576 0.241717 -4.50968
333 1 -9.39749 14.6026 2.90565 -4.53291
334 1 -6.48966 11.8806 2.82373 -4.60197
335 1 -6.54101 14.6387 -0.104231 -4.56144
336 1 -5.42535 10.7774 55.2897 -4.58365
337 1 -5.34591 13.306 1.41106 -4.56568
338 1 -2.50283 10.5209 1.5674 -4.59288
339 1 -2.66461 13.17 -1.31376 -4.5598
340 1 -3.95188 11.825 0.0995666 -4.61052
341 1 -4.20144 14.616 2.91314 -4.6265
342 1 -1.42329 12.035 3.00618 -4.55895
343 1 -1.35456 14.5248 0.235098 -4.57285
344 1 0.0798269 10.6747 -1.35456 -4.54175
345 1 0.0354688 13.2368 1.71097 -4.59828
346 1 2.67208 10.9273 1.79337 -4.58096
347 1 2.75949 13.4773 55.6519 -4.51186
348 1 1.41111 12.099 0.223158 -4.54917
349 1 1.27025 14.4885 3.21311 -4.59065
350 1 4.17349 12.3248 2.91908 -4.61891
351 1 3.9899 14.9148 0.317267 -4.55695
352 1 5.27998 10.9401 -1.33719 -4.5627
353 1 5.62679 13.8654 1.74109 -4.44218
354 1 8.0681 11.137 1.42493 -4.54612
355 1 7.76256 13.5669 55.4215 -4.37942
356 1 6.4788 12.2648 0.0893455 -4.51672
357 1 6.65159 15.1597 3.60065 -4.49087
358 1 9.31375 12.4442 2.97342 -4.38839
359 1 8.96229 15.1006 0.0816678 -4.79513
360 1 10.3912 10.8203 55.0172 -4.37282
361 1 10.5214 13.8597 1.44875 -4.65921
362 1 12.9307 10.5299 0.54551 -4.34821
363 1 12.9158 13.126 54.5734 -4.25289
364 1 11.6144 12.4494 -0.199879 -4.80032
365 1 11.675 14.6773 3.32116 -4.26766
366 1 14.0325 11.2392 3.48833 -4.31583
367 1 13.6313 13.6218 0.0173562 -4.29075
368 1 16.0448 10.7341 54.4273 -4.23465
369 1 14.6984 11.883 1.31561 -4.70644
370 1 16.3748 10.4974 0.423996 -4.19634
371 1 -14.2002 15.4894 1.73816 -4.17221
372 1 -13.5353 16.218 3.93841 -4.22876
373 1 -9.88469 17.0877 54.8279 -4.34128
374 1 -8.35376 15.6649 1.02696 -4.56279
375 1 -8.23504 18.6461 55.6489 -4.06036
376 1 -9.68351 17.5186 0.430408 -4.41392
377 1 -6.95237 16.6587 2.48842 -4.64392
378 1 -8.42242 19.3446 1.44427 -4.21712
379 1 -5.34623 16.0602 55.2167 -4.55799
380 1 -6.17221 18.5445 1.34412 -4.63584
381 1 -2.79785 15.9685 1.52339 -4.56376
382 1 -2.60617 18.497 -0.910314 -4.68129
383 1 -4.32166 17.3422 0.292772 -4.4449
384 1 -4.75124 19.5417 2.97964 -3.73946
385 1 -1.687 17.0424 3.17716 -4.57147
386 1 -1.02528 19.6847 0.288226 -3.70172
387 1 0.327353 15.9212 -0.81502 -4.5834
388 1 -0.149976 18.4114 2.01427 -4.77698
389 1 2.63656 15.9956 1.99256 -4.57356
390 1 2.67529 19.3233 -0.263591 -4.40993
391 1 1.44271 17.4272 0.634857 -4.59746
392 1 0.905267 19.9124 3.37991 -4.48855
393 1 3.77665 17.4324 3.65361 -4.63146
394 1 2.57608 20.5469 1.67235 -4.30469
395 1 5.19706 16.3399 55.5285 -4.54565
396 1 4.4972 19.2509 2.30349 -4.18678
397 1 8.05863 17.1685 1.05235 -4.45293
398 1 9.42398 18.3983 -0.46251 -4.23507
399 1 6.00155 17.9549 0.239861 -4.11078
400 1 5.66549 19.8508 4.28265 -3.64933
401 1 8.52622 16.696 3.29907 -4.53428
402 1 9.95744 15.6597 54.5857 -4.28631
403 1 12.495 15.3552 1.19749 -4.25093
404 1 10.8232 16.5195 -0.169251 -4.28416
405 1 0.976536 20.966 -0.158949 -4.36817
406 1 -12.8822 -16.2485 3.98745 -4.45348
407 1 -7.97239 -18.3047 4.20581 -3.55093
408 1 -9.1628 -17.1102 9.13103 -3.6431
409 1 -6.30694 -19.4643 9.66879 -4.15626
410 1 -6.50059 -17.3093 5.83986 -4.51249
411 1 -5.38183 -18.5495 7.52543 -4.18046
412 1 -2.5264 -18.6746 4.65844 -4.39116
413 1 -3.28471 -19.546 6.83631 -4.20327
414 1 -3.36323 -17.5686 8.31756 -4.80586
415 1 -1.31212 -20.0457 8.10585 -4.13886
416 1 -0.940726 -17.256 5.71107 -4.6631
417 1 1.4409 -21.001 2.65345 -3.97864
418 1 0.479004 -18.8867 6.87389 -4.41606
419 1 2.69399 -18.1091 3.95394 -4.53074
420 1 1.37934 -19.8121 4.82174 -4.38318
421 1 1.44861 -17.0949 8.15575 -4.50748
422 1 5.31562 -19.2935 9.08371 -3.9644
423 1 4.32403 -17.2921 5.66311 -4.41219
424 1 5.94975 -18.0107 7.28721 -4.64379
425 1 7.82485 -18.2531 3.61589 -4.55349
426 1 7.40393 -18.9248 5.75466 -3.48268
427 1 7.14216 -16.6636 8.7933 -4.63537
428 1 9.15379 -17.417 5.5501 -4.34476
429 1 13.1979 -15.61 9.45096 -4.35046
430 1 -17.6182 -10.1379 6.38235 -4.18978
431 1 -16.4062 -12.1611 6.21241 -4.15735
432 1 -13.4671 -14.4187 5.28689 -4.2725
433 1 -12.3272 -13.0371 3.79947 -4.49971
434 1 -15.4523 -13.5291 4.36271 -4.50304
435 1 -14.6935 -12.0593 8.07424 -4.4824
436 1 -12.1445 -14.5202 7.86652 -4.08636
437 1 -11.4446 -11.824 5.61988 -4.50201
438 1 -10.4534 -16.2579 4.18647 -4.19821
439 1 -10.3328 -13.2879 7.03542 -4.65318
440 1 -8.02008 -16.2126 7.27438 -4.63254
441 1 -7.87019 -13.2359 4.54488 -4.56341
442 1 -9.24389 -14.8711 5.73507 -4.52568
443 1 -9.05916 -12.1138 8.67387 -4.61047
444 1 -6.51734 -14.8408 8.51508 -4.57022
445 1 -6.52906 -12.0171 6.02182 -4.56723
446 1 -5.10285 -16.1515 4.30365 -4.58166
447 1 -5.02871 -13.4997 7.18121 -4.59738
448 1 -2.25878 -15.7622 7.08769 -4.46162
449 1 -2.54605 -13.0493 4.31841 -4.60022
450 1 -3.75073 -14.6683 5.57962 -4.5979
451 1 -3.99088 -11.9608 8.60864 -4.52045
452 1 -1.19687 -14.3739 8.60524 -4.57829
453 1 -1.31259 -11.711 5.78635 -4.57044
454 1 0.0553926 -15.8223 4.10569 -4.61208
455 1 0.18757 -13.0926 7.0565 -4.59631
456 1 2.86704 -15.8423 6.81709 -4.63377
457 1 2.69381 -12.9948 4.39302 -4.62165
458 1 1.34534 -14.5214 5.59829 -4.58624
459 1 1.34039 -11.7413 8.59988 -4.57894
460 1 3.96046 -14.6412 8.57138 -4.57946
461 1 4.13551 -11.8895 5.84157 -4.5881
462 1 5.25663 -15.5182 4.30871 -4.56238
463 1 5.36899 -13.1869 7.28363 -4.59597
464 1 8.19197 -15.7166 6.81851 -4.49223
465 1 8.05442 -13.0294 4.5138 -4.58509
466 1 6.69869 -14.3817 5.72932 -4.58508
467 1 6.6083 -11.8333 8.81066 -4.63084
468 1 9.31224 -14.2542 8.39087 -4.50396
469 1 9.2697 -11.7415 6.0577 -4.62862
470 1 10.6023 -15.8569 4.32542 -4.54624
471 1 10.832 -13.1379 7.09964 -4.61325
472 1 13.7139 -15.3187 7.08783 -3.92914
473 1 13.3781 -13.3071 4.12803 -4.49839
474 1 11.9795 -14.5471 5.58683 -4.50264
475 1 12.0683 -11.7595 8.50349 -4.38282
476 1 13.7042 -13.2831 9.21012 -4.82064
477 1 14.6121 -11.8243 5.53504 -4.56362
478 1 15.4077 -13.6549 6.90654 -4.03404
479 1 15.9965 -13.2048 9.18705 -4.3089
480 1 -18.2888 -8.0417 5.21663 -4.50157
481 1 -19.0334 -6.72302 9.5451 -3.46821
482 1 -17.24 -9.83869 8.75558 -4.57459
483 1 -16.872 -6.75947 6.56581 -4.48812
484 1 -15.85 -10.2976 4.91133 -4.62419
485 1 -15.6915 -8.19331 7.99429 -4.55239
486 1 -13.0469 -10.6409 7.06819 -4.61401
487 1 -13.3412 -7.89046 4.45805 -4.51445
488 1 -14.5147 -9.00259 6.15641 -4.60047
489 1 -14.4818 -6.33635 8.91528 -4.54083
490 1 -11.9818 -9.45412 8.80699 -4.59841
491 1 -12.0684 -6.63436 5.93079 -4.60222
492 1 -10.3571 -10.5114 4.12247 -4.52359
493 1 -10.7539 -8.05556 7.38713 -4.55404
494 1 -7.6865 -10.6415 7.39101 -4.57469
495 1 -8.06863 -7.90628 4.61682 -4.63323
496 1 -9.24995 -9.52037 5.9386 -4.50156
497 1 -9.35143 -6.70188 8.78704 -4.57284
498 1 -6.53978 -9.2486 8.97108 -4.53671
499 1 -6.73245 -6.44045 5.98837 -4.57444
500 1 -5.17649 -10.6908 4.6685 -4.56388
501 1 -5.25934 -7.9892 7.19382 -4.53599
502 1 -2.49785 -10.5396 7.37172 -4.54749
503 1 -2.7018 -7.59163 4.55347 -4.57231
504 1 -3.80071 -9.23782 5.94695 -4.60582
505 1 -3.99359 -6.58447 8.7111 -4.57975
506 1 -1.40615 -9.1449 8.77926 -4.53646
507 1 -1.28165 -6.45193 5.97864 -4.61933
508 1 0.0553305 -10.2704 4.44439 -4.61207
509 1 -0.0363585 -7.91647 7.4185 -4.57863
510 1 2.74088 -10.5104 7.22779 -4.61113
511 1 2.69312 -7.53064 4.49663 -4.60623
512 1 1.46485 -8.99398 5.86916 -4.59608
513 1 1.24415 -6.37227 8.68447 -4.5981
514 1 4.0329 -9.24457 8.62883 -4.54206
515 1 4.05936 -6.24527 5.85884 -4.56016
516 1 5.3153 -10.2909 4.62979 -4.60717
517 1 5.14292 -7.64483 7.50979 -4.55444
518 1 7.96371 -10.3883 7.46931 -4.62444
519 1 7.96202 -7.87909 4.54378 -4.5955
520 1 6.55484 -9.02879 6.18206 -4.59272
521 1 6.65014 -6.38858 8.77205 -4.61634
522 1 9.43695 -9.17667 8.82621 -4.59764
523 1 9.25808 -6.33875 5.85417 -4.6047
524 1 10.5835 -10.3638 4.74733 -4.56725
525 1 10.6421 -7.63032 7.29241 -4.60071
526 1 13.4928 -10.4418 7.18289 -4.59981
527 1 13.2581 -7.63876 4.74312 -4.53066
528 1 12.0287 -9.05691 6.00694 -4.58561
529 1 12.1906 -6.47134 8.67022 -4.60955
530 1 14.7812 -9.30609 8.71112 -4.51179
531 1 14.7438 -6.33747 6.06979 -4.57759
532 1 16.0387 -10.5663 4.17433 -4.56118
533 1 15.961 -7.73565 7.44027 -4.73126
534 1 18.3736 -7.51277 4.47181 -3.85486
535 1 16.9882 -8.93791 5.67505 -3.75312
536 1 17.5272 -6.48145 8.81934 -4.24957
537 1 19.272 -5.53618 5.19842 -3.65706
538 1 -18.6408 -5.41017 7.54228 -4.60622
539 1 -17.5309 -2.89152 4.43781 -4.32366
540 1 -19.1685 -4.23799 5.47715 -4.35468
541 1 -19.5586 -2.22548 6.72645 -3.93249
542 1 -17.4387 -3.94427 8.90352 -4.61977
543 1 -17.5045 -1.04533 6.01039 -5.33857
544 1 -16.2645 -5.7985 4.40597 -4.88975
545 1 -16.0932 -2.71744 7.33285 -4.31107
546 1 -13.3963 -5.16515 7.17578 -4.57024
547 1 -13.3292 -2.83021 4.6098 -4.58448
548 1 -14.966 -4.08886 5.7971 -4.36328
549 1 -14.5509 -1.62236 8.69097 -4.5758
550 1 -11.8627 -4.10707 8.53218 -4.55601
551 1 -11.948 -1.38228 5.83985 -4.59657
552 1 -10.6426 -5.29463 4.68208 -4.55684
553 1 -10.5664 -2.62202 7.27574 -4.63506
554 1 -7.96158 -5.14837 7.5599 -4.61407
555 1 -7.85324 -2.54674 4.74763 -4.55106
556 1 -9.2589 -3.99284 5.98508 -4.60143
557 1 -9.26984 -1.43376 8.78997 -4.58576
558 1 -6.57039 -3.5905 8.73545 -4.5192
559 1 -6.48078 -1.06507 5.98742 -4.62513
560 1 -5.42229 -4.99165 4.5067 -4.60632
561 1 -5.10111 -2.52996 7.22578 -4.59415
562 1 -2.75579 -5.10614 7.23724 -4.59719
563 1 -2.52371 -2.26302 4.37122 -4.55844
564 1 -3.86292 -3.69947 5.65097 -4.57514
565 1 -3.81558 -1.19141 8.64752 -4.61103
566 1 -1.37596 -3.97685 8.73046 -4.54135
567 1 -1.26484 -1.16311 6.10789 -4.54692
568 1 -0.0411595 -4.89681 4.53541 -4.57273
569 1 0.0522479 -2.43949 7.5655 -4.59892
570 1 2.6594 -5.03915 7.40744 -4.59816
571 1 2.84357 -2.40211 4.55428 -4.54469
572 1 1.32801 -3.67673 6.04901 -4.58547
573 1 1.53165 -1.19121 8.91203 -4.57274
574 1 3.87563 -3.71514 8.8677 -4.55275
575 1 4.19757 -1.11204 5.8165 -4.56534
576 1 5.5537 -5.13582 4.36055 -4.60224
577 1 5.34025 -2.44115 7.26772 -4.50831
578 1 7.9797 -5.00659 7.35971 -4.59588
579 1 7.99718 -2.36508 4.53062 -4.60275
580 1 6.70569 -3.74529 5.91667 -4.60422
581 1 6.73292 -1.31342 8.69335 -4.58275
582 1 9.40874 -3.83281 8.82865 -4.60528
583 1 9.48497 -1.11478 6.04999 -4.57106
584 1 10.7643 -5.17307 4.46496 -4.61397
585 1 10.6689 -2.62746 7.3173 -4.55337
586 1 13.5658 -4.889 7.42141 -4.58774
587 1 13.2161 -2.29474 4.55727 -4.61443
588 1 12.0602 -3.77471 5.94164 -4.58762
589 1 12.161 -1.37463 8.66628 -4.59844
590 1 15.0701 -3.81655 8.78354 -4.52956
591 1 14.5668 -1.17523 6.08435 -4.56453
592 1 16.1244 -5.03869 4.45235 -4.43765
593 1 16.1761 -2.50032 7.15511 -4.35272
594 1 18.7415 -5.01851 7.40214 -3.56986
595 1 18.7743 -2.18536 4.02708 -4.41631
596 1 17.7644 -3.66427 5.67044 -5.06011
597 1 17.2476 -1.04613 8.47991 -4.53851
598 1 19.2942 -2.03405 9.29127 -4.53861
599 1 19.67 -0.30475 5.24818 -4.36486
600 1 -19.808 -0.198104 5.34658 -4.04639
601 1 -18.0984 0.301467 7.91627 -4.43946
602 1 -17.9038 2.72973 5.18111 -4.6231
603 1 -19.3844 1.72493 6.62068 -4.5524
604 1 -18.8974 3.61423 8.05741 -4.2662
605 1 -16.4796 1.43267 9.10278 -4.62321
606 1 -17.0729 4.35146 6.61886 -4.95605
607 1 -15.8272 -0.228402 4.45213 -4.3036
608 1 -15.3717 2.77786 7.37159 -4.38003
609 1 -13.2302 -0.131346 7.46833 -4.60447
610 1 -13.1247 2.58227 4.59899 -4.57106
611 1 -14.464 1.1451 5.8201 -4.54654
612 1 -14.1545 4.05911 8.95662 -4.58957
613 1 -11.7359 1.23962 8.6808 -4.56281
614 1 -11.9616 3.94954 5.98036 -4.54327
615 1 -10.5948 -0.109704 4.44497 -4.55231
616 1 -10.4238 2.6194 7.25955 -4.57265
617 1 -7.90612 0.0996977 7.42925 -4.59784
618 1 -7.85679 2.83561 4.51578 -4.60394
619 1 -9.13703 1.35394 5.84534 -4.58182
620 1 -9.15503 3.9245 8.62493 -4.53193
621 1 -6.53574 1.34548 8.82277 -4.61277
622 1 -6.51889 4.03803 5.97587 -4.56888
623 1 -5.37043 0.32053 4.47796 -4.57342
624 1 -5.25817 2.57541 7.26091 -4.57764
625 1 -2.5821 0.315109 7.2696 -4.59543
626 1 -2.46254 2.91058 4.34364 -4.57694
627 1 -3.87961 1.54513 5.71244 -4.56421
628 1 -3.8331 3.86084 8.76156 -4.6107
629 1 -1.20564 1.59644 8.7032 -4.62158
630 1 -1.2868 4.02048 6.04976 -4.58552
631 1 -0.081096 0.109988 4.52093 -4.55352
632 1 0.258354 2.82925 7.31811 -4.59368
633 1 2.69438 0.0433657 7.2242 -4.55918
634 1 2.73859 2.8445 4.44099 -4.56066
635 1 1.471 1.45248 5.85165 -4.57905
636 1 1.45529 4.25791 8.86119 -4.59821
637 1 4.05412 1.38528 8.46264 -4.54164
638 1 4.19526 4.15631 5.69948 -4.58276
639 1 5.38449 0.338698 4.44774 -4.61292
640 1 5.36846 2.83687 7.25922 -4.62338
641 1 7.95201 0.214841 7.302 -4.58821
642 1 8.21784 2.94642 4.57207 -4.60015
643 1 6.76473 1.58118 5.88977 -4.60059
644 1 6.84531 4.13469 8.57553 -4.57886
645 1 9.33426 1.42781 8.68897 -4.62167
646 1 9.62796 4.32715 5.82433 -4.56964
647 1 10.8362 0.302045 4.53323 -4.5498
648 1 10.5967 2.96634 7.41999 -4.58747
649 1 13.2455 0.250044 7.43259 -4.5925
650 1 13.1457 3.06669 4.4376 -4.63261
651 1 12.0136 1.71148 5.99753 -4.57896
652 1 12.1213 4.05411 8.81414 -4.57048
653 1 14.6204 1.57408 8.79005 -4.59532
654 1 14.6856 4.32734 5.70377 -4.57422
655 1 15.7003 0.193336 4.43146 -4.59885
656 1 15.7753 2.93515 7.17823 -4.46467
657 1 18.088 0.36368 6.79986 -4.67421
658 1 18.3235 2.66668 3.86376 -4.52597
659 1 16.9353 1.89273 5.54957 -4.56534
660 1 17.1631 4.27993 8.31759 -4.53909
661 1 19.6323 1.7823 7.85175 -4.55009
662 1 19.7905 4.08498 4.98732 -4.53487
663 1 20.7899 1.88281 5.68936 -4.07528
664 1 -19.1704 5.99668 8.42897 -4.29881
665 1 -17.9369 7.65853 4.97001 -3.61103
666 1 -18.9132 5.88158 5.89228 -4.28295
667 1 -17.0365 6.71582 8.9539 -4.70623
668 1 -17.338 9.63759 6.21172 -4.56802
669 1 -15.8265 5.21591 4.7649 -4.35447
670 1 -15.9296 8.07705 7.29031 -4.50275
671 1 -13.0725 5.44735 7.42753 -4.5843
672 1 -13.1869 7.75432 4.50579 -4.60595
673 1 -14.5397 6.64043 6.02682 -4.56816
674 1 -14.8636 9.15189 9.05813 -4.56447
675 1 -11.6641 6.64093 8.96284 -4.52749
676 1 -11.9486 9.13469 5.95146 -4.55849
677 1 -10.5382 5.36058 4.58908 -4.59714
678 1 -10.4524 7.88443 7.26629 -4.61147
679 1 -7.88237 5.3559 7.3393 -4.58424
680 1 -7.64314 8.02411 4.28651 -4.58871
681 1 -9.02212 6.8113 5.69466 -4.51505
682 1 -9.36334 9.41622 8.73726 -4.55753
683 1 -6.51843 6.65482 8.70344 -4.60291
684 1 -6.47877 9.3642 5.90964 -4.56806
685 1 -5.19396 5.16347 4.35837 -4.54254
686 1 -5.21621 8.02378 7.25735 -4.5858
687 1 -2.71436 5.35861 7.29548 -4.58889
688 1 -2.49877 8.02674 4.48321 -4.59625
689 1 -4.06416 6.67885 5.75895 -4.58066
690 1 -4.05859 9.45386 8.78091 -4.56862
691 1 -1.34773 6.72467 8.54823 -4.59538
692 1 -1.23015 9.3998 5.95761 -4.59782
693 1 -0.00697379 5.36106 4.47872 -4.60924
694 1 0.089246 8.10275 7.3547 -4.58843
695 1 2.74264 5.35946 7.18788 -4.60324
696 1 2.71099 8.01437 4.39219 -4.58654
697 1 1.27211 6.72002 5.95182 -4.57195
698 1 1.49124 9.5216 8.61603 -4.54493
699 1 4.14186 6.65872 8.42433 -4.5813
700 1 4.27911 9.31507 5.62884 -4.54146
701 1 5.60614 5.63937 4.42029 -4.57441
702 1 5.46001 8.2418 7.27723 -4.57591
703 1 8.17518 5.62996 7.21997 -4.58734
704 1 8.15704 8.45619 4.30604 -4.58064
705 1 6.78765 7.09181 5.73614 -4.55753
706 1 6.82885 9.53258 8.76333 -4.58719
707 1 9.57292 6.90585 8.70564 -4.60558
708 1 9.50603 9.6179 5.75671 -4.55495
709 1 10.6475 5.86005 4.40158 -4.54092
710 1 10.8278 8.3606 7.23943 -4.41012
711 1 13.2351 5.42763 7.29233 -4.5478
712 1 13.3588 8.12415 4.09377 -4.31325
713 1 12.0274 6.94562 5.83228 -4.50038
714 1 12.2026 9.60734 8.88395 -4.67548
715 1 14.6867 6.91918 8.61991 -4.4264
716 1 14.4629 9.06551 5.92503 -4.49477
717 1 15.7456 5.85451 4.1027 -4.17556
718 1 16.1323 8.62958 7.58517 -4.63982
719 1 18.1122 5.00559 6.33721 -4.21419
720 1 19.1399 7.64188 4.46356 -4.08734
721 1 17.058 7.18405 5.69097 -5.23828
722 1 17.6084 9.72425 9.04083 -4.22501
723 1 19.2462 6.93754 6.76756 -4.20337
724 1 -16.9477 11.429 7.81587 -3.50197
725 1 -16.0921 10.6328 4.345 -4.52912
726 1 -15.8846 13.1346 6.54077 -4.5486
727 1 -13.2834 10.1026 7.56478 -4.479
728 1 -12.7129 12.6303 4.90417 -4.12538
729 1 -14.3653 11.4364 5.90722 -4.64161
730 1 -13.9325 14.1144 7.46523 -4.05668
731 1 -11.7953 11.6696 8.86495 -4.58597
732 1 -11.84 14.5579 6.20439 -5.38446
733 1 -10.5176 10.3644 4.44691 -4.56232
734 1 -10.4196 13.038 7.4094 -4.33301
735 1 -7.88967 10.6306 7.31562 -4.60187
736 1 -7.94739 13.1927 4.09185 -4.56447
737 1 -9.19727 11.8877 5.73064 -4.58135
738 1 -9.28166 14.7895 8.54845 -4.60957
739 1 -6.62833 11.9982 8.73909 -4.60008
740 1 -6.70123 14.4136 5.64074 -4.55452
741 1 -5.04915 10.711 4.37314 -4.54625
742 1 -5.35786 13.4462 7.30145 -4.5231
743 1 -2.64636 10.7517 7.39358 -4.59977
744 1 -2.68698 13.462 4.26037 -4.51619
745 1 -3.8525 12.1737 5.92459 -4.59106