ITEM: TIMESTEP
272000
ITEM: NUMBER OF ATOMS
4050
ITEM: BOX BOUNDS ss ss pp
-2.0539770770810566e+01 2.0364946891314915e+01
-2.0350461825161236e+01 2.0367203740460074e+01
-3.6930800000000010e+00 5.8003079999999997e+01
ITEM: ATOMS id type x y z c_peratom
1 1 -12.0654 -15.101 -1.40374 -3.87366
2 1 -7.28271 -17.7848 -3.11487 -4.5681
3 1 -8.92885 -16.9997 0.514448 -4.6214
4 1 -7.05149 -18.4192 0.370356 -3.68497
5 1 -6.07008 -16.1532 -1.89832 -4.62586
6 1 -5.02977 -18.0644 -0.804418 -4.54054
7 1 -2.8507 -18.0096 57.9163 -4.44934
8 1 -5.08061 -18.9023 -3.11375 -4.23873
9 1 -3.81841 -16.7684 0.876479 -4.4111
10 1 -1.08005 -19.1794 1.15341 -4.33159
11 1 -1.54412 -16.5194 -2.29635 -4.43975
12 1 0.022699 -19.4012 -1.92873 -4.52932
13 1 -0.54006 -17.5973 -0.540418 -4.57701
14 1 3.13264 -17.3207 57.8415 -4.66064
15 1 2.04002 -18.4959 -2.03875 -3.79392
16 1 1.12775 -16.4533 0.609099 -4.5879
17 1 3.13524 -19.1793 -0.0704048 -4.35211
18 1 4.0276 -15.9233 -2.1168 -4.6115
19 1 5.06057 -17.507 -0.897229 -4.39204
20 1 6.58018 -18.144 -2.5424 -4.36474
21 1 9.16378 -16.96 0.0889888 -4.35741
22 1 6.02684 -16.1401 0.684731 -4.45435
23 1 8.49476 -16.799 -2.16811 -4.14541
24 1 10.8346 -15.6279 1.00896 -4.03825
25 1 -15.0596 -12.536 -1.85193 -4.14374
26 1 -15.3936 -13.8831 0.346103 -4.21453
27 1 -14.002 -15.6532 -0.332681 -4.32215
28 1 -12.4243 -13.2529 57.6806 -4.51309
29 1 -13.9463 -14.4206 -2.6672 -4.39426
30 1 -14.3223 -11.646 0.208236 -4.2046
31 1 -11.3207 -14.0184 0.539288 -4.93769
32 1 -11.6224 -11.7276 -2.39056 -4.56204
33 1 -10.2062 -15.5931 -3.6152 -4.02351
34 1 -10.0721 -12.6604 -0.876172 -4.40942
35 1 -7.73614 -15.264 -0.505269 -4.55413
36 1 -7.41522 -12.7783 -3.46371 -4.53199
37 1 -8.83856 -14.1736 -2.13025 -4.57389
38 1 -8.81545 -11.4444 0.697065 -4.55978
39 1 -6.22238 -14.0247 0.927823 -4.53155
40 1 -6.3159 -11.3106 -2.18819 -4.51795
41 1 -4.74903 -15.3519 57.9843 -4.51413
42 1 -5.18156 -12.658 -0.726003 -4.52888
43 1 -2.73046 -15.2845 -0.625444 -4.50027
44 1 -2.57682 -12.5824 57.8934 -4.46896
45 1 -3.67106 -13.8584 -2.23603 -4.524
46 1 -3.87893 -11.4086 0.79325 -4.59423
47 1 -1.35155 -14.0512 0.717583 -4.55456
48 1 -1.47866 -11.2012 -2.1514 -4.52888
49 1 -0.0101677 -15.3952 57.9754 -4.51595
50 1 -0.108175 -12.6584 -0.821244 -4.56517
51 1 2.34416 -14.9076 -0.641379 -4.49667
52 1 2.59967 -12.6082 57.962 -4.51563
53 1 1.18779 -13.8715 -2.3122 -4.54277
54 1 1.03473 -11.3078 0.791418 -4.58258
55 1 3.77 -13.8989 0.955704 -4.57519
56 1 3.61812 -11.3994 -1.89286 -4.52123
57 1 5.14949 -14.9151 57.879 -4.52737
58 1 5.10161 -12.6987 -0.631203 -4.55346
59 1 7.80144 -15.0725 -0.49693 -4.89774
60 1 7.89492 -12.4156 57.9622 -4.4363
61 1 6.5458 -13.736 -2.17207 -4.32651
62 1 6.0924 -11.1439 0.947947 -4.55587
63 1 8.77446 -13.57 1.10785 -4.53328
64 1 8.60557 -11.0048 -1.92286 -4.52745
65 1 9.87822 -15.4848 -3.5618 -4.17269
66 1 9.94971 -12.2177 -0.403419 -4.24309
67 1 12.1586 -14.5008 -0.582547 -4.3094
68 1 11.5095 -11.8396 -3.59467 -4.38351
69 1 10.5368 -13.6072 -2.255 -4.8295
70 1 11.0489 -11.1276 1.3958 -4.52664
71 1 13.7151 -12.9112 0.0550397 -4.03122
72 1 13.8185 -10.9586 -1.36594 -4.94417
73 1 15.6617 -12.447 -1.54626 -4.01309
74 1 15.8744 -10.2861 -0.340658 -3.88598
75 1 -17.4701 -7.51719 57.075 -4.32208
76 1 -18.4825 -5.92375 1.88072 -3.99082
77 1 -16.3403 -8.82746 1.01976 -3.56621
78 1 -16.5678 -6.28527 -2.5962 -4.40321
79 1 -15.3546 -10.619 -3.45517 -4.25554
80 1 -15.4867 -7.66233 -0.931989 -4.5187
81 1 -12.7223 -10.2362 -0.879758 -4.47907
82 1 -12.9594 -7.74523 57.7022 -4.58006
83 1 -14.0776 -9.04996 -2.31098 -4.65178
84 1 -13.8642 -6.74237 0.638892 -4.45737
85 1 -11.4105 -8.95746 0.548087 -4.48304
86 1 -11.726 -6.38998 -2.4503 -4.52282
87 1 -10.1855 -10.2045 -3.41746 -4.59191
88 1 -10.258 -7.34702 -0.773496 -4.57159
89 1 -7.5297 -10.0037 -0.563994 -4.58658
90 1 -7.62047 -7.49971 -3.64564 -4.59053
91 1 -8.86238 -8.73616 -1.98467 -4.58116
92 1 -8.85297 -6.36556 0.799915 -4.47379
93 1 -6.30644 -8.81613 0.97642 -4.52719
94 1 -6.0981 -6.28549 -2.27462 -4.56619
95 1 -5.10914 -10.0755 57.8837 -4.49322
96 1 -5.01016 -7.60351 -0.675796 -4.46329
97 1 -2.62915 -9.92648 -0.467653 -4.52611
98 1 -2.47932 -7.73548 -3.63089 -4.55197
99 1 -3.92035 -8.96938 -2.1693 -4.50353
100 1 -3.88495 -6.24727 0.893208 -4.50574
101 1 -1.28581 -8.51445 0.925233 -4.55105
102 1 -1.28237 -6.19208 -2.21431 -4.55904
103 1 -0.108238 -10.1709 -3.64521 -4.50654
104 1 0.060817 -7.34445 -0.648646 -4.52757
105 1 2.41683 -9.94066 -0.500009 -4.56472
106 1 2.54864 -7.57943 -3.69947 -4.56812
107 1 1.13915 -8.77302 -2.20792 -4.56731
108 1 1.19992 -6.12975 1.01575 -4.50664
109 1 3.65874 -8.58739 0.967252 -4.49369
110 1 3.69107 -6.11744 -2.14519 -4.52415
111 1 5.1039 -10.4161 -3.53483 -4.49997
112 1 4.99871 -7.42278 -0.620883 -4.55303
113 1 7.4682 -9.76713 -0.271205 -4.51652
114 1 7.56887 -7.54098 -3.58639 -4.50914
115 1 6.17901 -8.87455 -2.10872 -4.54199
116 1 6.32027 -6.06409 0.907867 -4.49928
117 1 8.78392 -8.32804 1.03366 -4.53547
118 1 8.83816 -6.15435 -2.06392 -4.50752
119 1 10.2124 -9.9089 -3.1041 -4.43032
120 1 10.1605 -7.1231 -0.42847 -4.52938
121 1 12.5133 -9.62344 0.203352 -4.44893
122 1 12.4856 -7.44948 57.9387 -4.3544
123 1 11.4638 -8.61496 -1.70968 -4.40937
124 1 11.522 -5.73426 1.1578 -4.41499
125 1 13.9314 -8.02591 1.17964 -4.63273
126 1 13.523 -6.162 -2.13254 -4.65994
127 1 14.6959 -9.89668 -3.32314 -4.40349
128 1 15.1008 -7.22823 -0.777719 -4.60905
129 1 16.4569 -6.82259 57.9575 -4.48595
130 1 16.2867 -8.66496 -2.09431 -4.45894
131 1 16.2417 -5.419 0.216777 -4.5587
132 1 18.1282 -5.32752 -3.59822 -3.92218
133 1 -17.9908 -5.2885 -0.929845 -3.83962
134 1 -17.373 -2.36629 -3.25535 -4.96571
135 1 -18.7609 -3.01589 -1.32257 -4.33878
136 1 -17.6762 -2.00883 0.466814 -4.61233
137 1 -16.5644 -5.00187 0.977235 -4.61606
138 1 -16.2159 -0.702191 -2.05406 -4.56278
139 1 -14.9346 -5.07786 57.9741 -4.57742
140 1 -15.5415 -2.33803 -0.52769 -4.48932
141 1 -12.7869 -5.05899 -0.707762 -4.5565
142 1 -12.6712 -2.47419 -3.52062 -4.53783
143 1 -14.147 -3.57588 -2.03136 -4.42078
144 1 -13.8759 -1.22406 0.77402 -4.55723
145 1 -11.2926 -4.05994 0.901392 -4.53517
146 1 -11.1669 -1.23014 -2.19428 -4.57537
147 1 -10.2061 -5.07429 -3.60633 -4.5693
148 1 -10.137 -2.58733 -0.587444 -4.57014
149 1 -7.47807 -5.14317 -0.692934 -4.57855
150 1 -7.72738 -2.63174 57.9874 -4.52907
151 1 -8.87876 -3.93972 -2.13048 -4.52931
152 1 -9.01694 -1.21417 0.989812 -4.5645
153 1 -6.26972 -3.7952 0.838117 -4.48244
154 1 -6.36873 -1.1803 -2.41395 -4.5238
155 1 -5.09525 -4.86401 57.9095 -4.53134
156 1 -5.16018 -2.49083 -0.788157 -4.49078
157 1 -2.5146 -4.96247 -0.569552 -4.4957
158 1 -2.3923 -2.46924 57.853 -4.54354
159 1 -3.79172 -3.67413 -2.26905 -4.54285
160 1 -3.75284 -1.19123 0.85153 -4.44756
161 1 -1.27767 -3.57832 0.996507 -4.5596
162 1 -1.14907 -1.26723 -2.15517 -4.51731
163 1 0.114809 -5.04659 -3.66344 -4.50167
164 1 0.0659156 -2.35696 -0.479607 -4.51238
165 1 2.6737 -4.9259 -0.301554 -4.51307
166 1 2.48321 -2.4778 -3.41352 -4.53448
167 1 1.26895 -3.79985 -1.91013 -4.53893
168 1 1.36292 -1.10265 0.935394 -4.47947
169 1 3.94371 -3.37785 1.04237 -4.51244
170 1 3.75598 -1.00085 -2.02166 -4.59288
171 1 5.165 -5.10353 -3.68299 -4.54113
172 1 5.13569 -2.32534 -0.708365 -4.45555
173 1 7.72074 -4.73658 -0.494356 -4.52407
174 1 7.60201 -2.24426 -3.47109 -4.51636
175 1 6.3931 -3.77635 -2.14719 -4.56706
176 1 6.15831 -0.897754 1.12781 -4.46955
177 1 8.9393 -3.43683 1.16358 -4.49521
178 1 8.74792 -1.00681 -1.87325 -4.50588
179 1 9.90796 -4.82579 57.9512 -4.52498
180 1 10.1905 -2.22042 -0.38815 -4.44623
181 1 12.5342 -4.67713 -0.660295 -4.44196
182 1 12.6379 -2.50791 -3.53151 -4.50224
183 1 11.0281 -3.49661 -2.15025 -4.47625
184 1 11.4423 -1.10323 1.40152 -4.36135
185 1 14.4007 -4.0941 0.663166 -4.48859
186 1 13.5112 -1.28846 -1.61526 -4.44807
187 1 14.9256 -5.12605 -3.66314 -4.56427
188 1 15.3351 -2.28162 -0.432809 -4.49488
189 1 17.6289 -4.28145 -1.48244 -4.53742
190 1 17.4157 -2.25077 57.8282 -4.65828
191 1 15.8436 -3.35268 -2.48715 -4.6248
192 1 16.4815 -1.32191 1.3857 -4.32057
193 1 18.9075 -2.29029 -0.619439 -4.02578
194 1 18.7308 -0.708017 -2.46771 -3.99165
195 1 -19.4629 -1.22814 -2.76968 -4.4069
196 1 -18.2827 0.174035 0.665882 -4.38954
197 1 -18.1465 2.33381 -3.39189 -4.2376
198 1 -18.2279 0.477229 -1.77236 -4.45364
199 1 -17.7663 4.30816 1.91139 -4.53705
200 1 -16.3215 1.26583 1.18788 -4.57952
201 1 -17.0014 3.62245 -1.71548 -4.44898
202 1 -15.0423 0.0899171 57.7895 -4.52278
203 1 -15.2225 2.46601 -0.646827 -4.50165
204 1 -12.5155 0.0212362 -0.748872 -4.55052
205 1 -12.5477 2.56447 -3.66543 -4.58346
206 1 -13.8224 1.26698 -2.24161 -4.55163
207 1 -14.1172 4.02585 0.720786 -4.5268
208 1 -11.4598 1.36495 0.836258 -4.53257
209 1 -11.4751 4.01377 -2.11831 -4.56491
210 1 -9.86722 -0.0164772 57.9997 -4.52995
211 1 -10.168 2.50815 -0.761009 -4.56118
212 1 -7.52279 -0.0984985 -0.553235 -4.5276
213 1 -7.56193 2.55814 57.8722 -4.48428
214 1 -8.73998 1.25499 -2.04395 -4.49865
215 1 -8.80743 3.70668 0.757304 -4.58842
216 1 -6.15858 1.20455 0.872085 -4.5658
217 1 -6.20687 3.78397 -2.1521 -4.56823
218 1 -4.97178 0.0708564 57.8895 -4.54603
219 1 -4.90109 2.51648 -0.627054 -4.50884
220 1 -2.35945 0.192654 -0.594186 -4.50543
221 1 -2.35349 2.71471 57.8489 -4.52581
222 1 -3.57076 1.27676 -2.30167 -4.5015
223 1 -3.74055 3.72565 1.06516 -4.54284
224 1 -0.88359 1.30899 0.97035 -4.46809
225 1 -1.15877 4.05643 -2.17884 -4.47171
226 1 0.0367392 0.0787229 -3.64643 -4.54538
227 1 0.058111 2.83367 -0.547683 -4.51869
228 1 2.54239 0.369354 -0.418614 -4.49983
229 1 2.44647 2.78912 57.8833 -4.50344
230 1 1.31635 1.4593 -2.12577 -4.52811
231 1 1.48592 4.22528 0.838258 -4.52566
232 1 3.67979 1.779 1.07038 -4.49367
233 1 3.88391 4.00596 -2.25031 -4.47446
234 1 4.93708 0.325236 -3.50312 -4.50984
235 1 5.10209 2.91528 -0.413164 -4.51016
236 1 7.48603 0.400313 -0.405874 -4.56112
237 1 7.50914 2.77464 57.9713 -4.53912
238 1 6.30613 1.65915 -1.99732 -4.48975
239 1 6.61907 4.14031 0.956445 -4.55097
240 1 8.88692 1.51844 1.14741 -4.52853
241 1 8.90571 4.03395 -2.19904 -4.4254
242 1 10.0197 0.18676 -3.46456 -4.55115
243 1 10.0704 2.79878 -0.417211 -4.50223
244 1 12.3836 0.246094 -0.195402 -4.4845
245 1 12.3302 2.73542 -3.66663 -4.47368
246 1 11.3234 1.47641 -1.97282 -4.44862
247 1 11.4301 4.12224 1.0106 -4.57158
248 1 13.8608 1.40696 1.31227 -4.56943
249 1 13.6815 3.5793 -2.03952 -4.36428
250 1 14.4477 0.107928 -3.3546 -4.41577
251 1 14.9321 2.45384 -0.405926 -4.54864
252 1 17.8404 -0.143828 -0.302302 -4.78483
253 1 17.0814 1.85191 -3.50297 -4.38576
254 1 16.0715 0.860218 -1.61489 -4.31767
255 1 16.4128 3.81998 0.754092 -4.60117
256 1 19.2811 0.942671 1.37442 -4.2656
257 1 18.8715 3.23664 -3.15676 -4.09753
258 1 19.3529 1.18626 57.6488 -4.1913
259 1 -18.0626 5.18077 -0.335977 -3.75079
260 1 -17.2439 7.98218 57.0587 -4.59219
261 1 -17.8847 6.33057 -3.10902 -3.88842
262 1 -16.9556 7.09067 0.580499 -4.63016
263 1 -16.8841 9.07099 -2.55733 -3.78978
264 1 -15.8588 4.92127 -3.43503 -5.26688
265 1 -15.4366 7.99659 -0.914791 -4.56106
266 1 -12.7562 5.3821 -0.700239 -4.58062
267 1 -12.9251 7.7142 57.9541 -4.5912
268 1 -14.2763 6.41724 -2.21257 -4.3471
269 1 -13.9598 8.80543 0.823431 -4.44855
270 1 -11.3107 6.5244 0.871609 -4.56375
271 1 -11.4055 8.85606 -2.22381 -4.52732
272 1 -10.2691 5.28527 57.999 -4.48286
273 1 -9.91639 7.62987 -0.708299 -4.51732
274 1 -7.47034 5.11238 -0.66957 -4.53932
275 1 -7.59 7.80965 57.9558 -4.49895
276 1 -8.77639 6.19286 -2.31133 -4.45418
277 1 -8.67782 8.97205 0.868093 -4.54908
278 1 -6.20469 6.35246 0.80162 -4.49179
279 1 -6.4302 8.77855 -2.03365 -4.49215
280 1 -4.95563 5.22328 -3.61796 -4.54856
281 1 -4.75107 7.69588 -0.69921 -4.5095
282 1 -2.53108 5.16123 -0.529833 -4.52006
283 1 -2.4235 7.76937 57.7691 -4.5206
284 1 -3.54614 6.48339 -2.2582 -4.49228
285 1 -3.74877 9.08223 0.871714 -4.54235
286 1 -1.19316 6.62169 0.863508 -4.5573
287 1 -1.45987 9.05452 -2.23219 -4.51787
288 1 0.168671 5.4785 -3.72259 -4.43695
289 1 0.0149054 7.9138 -0.81641 -4.50111
290 1 2.87002 5.4797 -0.641229 -4.52683
291 1 2.68703 7.9143 -3.62705 -4.46173
292 1 1.45422 6.60955 -2.1281 -4.5671
293 1 1.22081 9.02574 0.97954 -4.50927
294 1 4.15666 6.8177 0.905764 -4.55158
295 1 3.74901 9.23598 -2.09993 -4.46998
296 1 5.14441 5.35671 57.8381 -4.50115
297 1 5.37374 8.1972 -0.567607 -4.54197
298 1 7.82612 5.42689 -0.624678 -4.57097
299 1 7.30957 7.76189 57.8901 -4.5071
300 1 6.23562 6.47207 -2.08585 -4.44952
301 1 6.69009 9.61174 0.869556 -4.40631
302 1 9.14476 6.80916 0.74079 -4.3804
303 1 8.8336 8.82395 -2.40962 -4.57537
304 1 9.83782 5.30849 57.9142 -4.39368
305 1 10.3955 8.21309 -0.735002 -4.33043
306 1 12.703 5.34784 -0.556852 -4.47374
307 1 12.4869 7.5927 57.8572 -4.53038
308 1 11.1956 6.5247 -2.12158 -4.55579
309 1 12.0641 9.58138 1.56333 -4.46265
310 1 13.8821 6.73081 0.887755 -4.46223
311 1 13.891 8.87992 -2.41686 -4.24924
312 1 14.8577 5.04045 -3.66262 -4.47428
313 1 15.6814 8.01019 0.115883 -4.54974
314 1 17.9784 4.63604 -0.838444 -4.29191
315 1 16.8271 6.36903 57.8392 -4.61608
316 1 16.6019 6.48447 -1.49866 -3.68965
317 1 16.7683 8.62033 2.18719 -4.42932
318 1 19.0766 5.32651 1.14417 -3.65179
319 1 -15.6171 12.7609 2.04514 -4.16623
320 1 -15.2056 10.5098 -3.43406 -4.64508
321 1 -14.9412 13.1236 -0.301769 -4.20016
322 1 -12.6901 10.046 -0.751695 -4.48605
323 1 -12.8215 13.1583 -3.50019 -4.96877
324 1 -13.7699 11.7204 -1.76102 -4.25378
325 1 -13.5276 13.8346 1.49431 -4.93269
326 1 -11.334 11.1142 0.870473 -4.36923
327 1 -11.858 14.4951 -1.72858 -4.31658
328 1 -10.381 10.3089 57.9048 -4.59686
329 1 -10.5751 12.6352 -0.799315 -4.48224
330 1 -7.57181 10.3131 -0.740179 -4.55413
331 1 -7.83542 12.5409 57.6848 -4.48678
332 1 -9.05677 11.5294 -2.1997 -4.48046
333 1 -9.37699 13.9587 0.804819 -4.48428
334 1 -6.34321 11.6217 0.719782 -4.53208
335 1 -6.717 14.0625 -2.52127 -4.57981
336 1 -5.23496 10.0378 57.9714 -4.52861
337 1 -5.30689 12.7879 -1.11438 -4.49364
338 1 -2.59878 10.3734 -0.714877 -4.50921
339 1 -2.5571 12.6643 57.8453 -4.53452
340 1 -3.94985 11.4182 -2.30427 -4.55565
341 1 -4.06075 14.069 0.546244 -4.43416
342 1 -1.09466 11.4983 0.761022 -4.52604
343 1 -1.64594 14.026 -2.14978 -4.56155
344 1 -0.0973367 10.2728 57.9675 -4.55512
345 1 -0.0671492 12.8887 -0.782543 -4.58002
346 1 2.58579 10.4703 -0.509082 -4.46026
347 1 2.41695 12.8413 57.9362 -4.57991
348 1 1.23238 11.3992 -2.19831 -4.52116
349 1 1.0325 14.0784 1.01793 -4.52345
350 1 4.12861 11.8785 0.97 -4.4151
351 1 3.65847 14.3855 -2.33646 -4.42093
352 1 4.94631 10.3751 58.0167 -4.46644
353 1 5.2644 13.3181 -0.724564 -4.30138
354 1 7.90673 10.5558 -1.01758 -4.36321
355 1 7.21876 12.8651 57.6485 -4.4156
356 1 6.19627 11.6153 -2.24172 -4.52826
357 1 6.41682 14.4109 1.1254 -4.55858
358 1 9.4407 12.3079 1.42829 -4.45708
359 1 8.33617 14.2748 -2.52295 -4.82724
360 1 9.93434 10.1062 57.6257 -4.38087
361 1 9.29418 12.5089 -1.00359 -4.7475
362 1 12.2706 9.6967 -0.857962 -4.82491
363 1 12.2953 12.1673 57.4215 -4.22881
364 1 11.0153 11.3154 -2.26653 -4.69719
365 1 11.0339 13.9023 1.73713 -4.45499
366 1 13.8902 11.0079 1.88797 -4.48285
367 1 12.8055 13.0071 -2.00822 -4.29473
368 1 15.3441 9.97278 57.7154 -4.08846
369 1 13.8491 11.4151 -0.485029 -4.40463
370 1 15.605 10.0107 -1.33703 -4.24671
371 1 -13.7944 15.087 -0.48824 -3.95291
372 1 -12.8032 15.9555 2.07173 -3.89885
373 1 -9.57433 15.3443 57.8425 -4.48849
374 1 -8.20166 15.1046 -1.01926 -4.52909
375 1 -8.90243 17.5288 57.3117 -4.47576
376 1 -9.37734 16.8587 -2.10496 -4.47417
377 1 -6.84184 16.2342 0.552451 -4.76388
378 1 -7.51625 18.1668 -2.48296 -3.53816
379 1 -5.56186 15.5388 57.8449 -4.51667
380 1 -5.82508 17.9221 -0.731893 -4.6401
381 1 -3.01817 15.469 -0.881662 -4.53985
382 1 -3.02115 18.1813 57.9735 -4.52105
383 1 -4.30043 16.817 -2.23971 -4.50716
384 1 -5.32778 18.9606 1.36248 -3.81567
385 1 -1.87222 16.732 0.779019 -4.5647
386 1 -1.08167 18.9665 -2.51159 -3.667
387 1 -0.20427 15.2609 -3.66211 -4.53334
388 1 -0.357197 17.8838 -0.487865 -4.67532
389 1 2.29897 15.2041 -0.65365 -4.52421
390 1 2.28846 17.9509 -2.85454 -4.47323
391 1 0.832536 16.4349 -1.88462 -4.63888
392 1 0.967388 19.2496 1.00469 -4.47439
393 1 3.51678 16.6077 0.912752 -4.56185
394 1 2.45673 19.459 -1.04951 -4.24716
395 1 4.56034 15.8962 57.6779 -4.2389
396 1 4.39739 18.2414 -0.43183 -4.43684
397 1 7.37285 16.1741 -1.4088 -4.29456
398 1 8.83339 17.4612 -2.74159 -4.49364
399 1 5.61606 17.0877 -2.43597 -4.4084
400 1 5.39763 19.1499 1.5372 -3.73136
401 1 8.06967 16.0999 1.08143 -4.3353
402 1 9.68929 14.7404 57.2159 -4.29787
403 1 11.0334 14.1056 -0.733053 -4.276
404 1 10.3992 15.6037 -2.50411 -4.2702
405 1 0.989837 19.853 -3.01622 -4.3964
406 1 -12.482 -15.8982 1.64891 -4.17078
407 1 -7.737 -17.6949 2.513 -3.72535
408 1 -9.15501 -16.106 6.79353 -3.63987
409 1 -6.46769 -18.389 7.69089 -4.02956
410 1 -6.39273 -16.4498 3.96172 -4.64259
411 1 -5.15494 -17.6606 5.70484 -4.57479
412 1 -2.64255 -17.9822 2.55215 -4.51777
413 1 -3.30614 -18.6918 4.66085 -3.69588
414 1 -3.69404 -16.3101 6.89506 -4.60285
415 1 -1.3549 -19.0987 5.91128 -3.65586
416 1 -1.21716 -16.5547 3.68179 -4.65911
417 1 0.985279 -20.3372 0.319836 -3.98288
418 1 0.308522 -17.9826 4.74081 -4.46326
419 1 2.56969 -17.8952 1.87852 -4.58473
420 1 0.826373 -19.2646 2.59865 -4.28545
421 1 1.10141 -16.3418 6.41427 -4.38695
422 1 3.94431 -18.979 7.39635 -4.38145
423 1 3.59111 -16.7761 3.6908 -4.44241
424 1 4.95553 -17.8111 5.35153 -4.40742
425 1 7.63389 -17.3771 1.80391 -4.41273
426 1 6.97821 -18.181 3.94673 -3.38036
427 1 6.16031 -16.3314 6.78611 -4.44166
428 1 8.80778 -16.6857 3.65386 -4.36843
429 1 12.744 -14.7389 8.02248 -4.35339
430 1 -17.0987 -9.85151 4.30076 -4.24959
431 1 -15.6763 -11.8939 4.05977 -4.06287
432 1 -12.8144 -14.4532 3.52374 -4.09282
433 1 -12.8247 -12.6639 1.89208 -4.81392
434 1 -14.9328 -13.6804 2.7583 -4.1883
435 1 -14.3938 -11.3716 6.06649 -4.96325
436 1 -11.7715 -13.9699 5.86192 -4.31397
437 1 -11.5943 -11.2458 3.47157 -4.44841
438 1 -10.1586 -15.5674 1.97726 -4.20162
439 1 -10.2482 -12.7058 4.69941 -4.5815
440 1 -7.90214 -14.9834 5.14922 -4.59782
441 1 -7.38362 -12.5833 2.20338 -4.5117
442 1 -8.93213 -14.0222 3.25868 -4.49508
443 1 -9.42047 -11.43 6.72061 -4.38056
444 1 -6.51012 -13.9018 6.58958 -4.50216
445 1 -6.44748 -11.4792 3.94131 -4.4724
446 1 -4.98206 -15.3609 2.37633 -4.56014
447 1 -4.9613 -12.6246 5.43428 -4.57877
448 1 -2.51848 -15.1739 5.25569 -4.50001
449 1 -2.41082 -12.6164 2.28818 -4.56922
450 1 -3.82196 -13.8348 3.72223 -4.58245
451 1 -3.87837 -11.2982 7.05422 -4.5318
452 1 -1.31344 -13.7039 6.72054 -4.57006
453 1 -1.21421 -11.3013 3.88555 -4.49582
454 1 -0.0451999 -15.1681 2.28943 -4.55235
455 1 0.0716167 -12.5173 5.3267 -4.49201
456 1 2.47281 -15.1604 5.05839 -4.56531
457 1 2.4472 -12.4919 2.28208 -4.61269
458 1 1.1275 -13.82 3.75515 -4.5485
459 1 1.21948 -11.3101 6.87378 -4.50469
460 1 3.65313 -14.0455 6.84664 -4.48338
461 1 3.79363 -11.4098 3.94345 -4.55169
462 1 4.91922 -15.254 2.47066 -4.49952
463 1 5.09524 -12.7257 5.48645 -4.62726
464 1 7.85198 -15.3153 5.41349 -4.44079
465 1 7.37423 -12.2765 2.5818 -4.47268
466 1 6.38767 -14.0042 3.94632 -4.57429
467 1 6.25046 -11.2641 6.93425 -4.52303
468 1 8.94461 -13.8379 6.97883 -4.47828
469 1 9.00668 -11.2056 4.02278 -4.58566
470 1 9.78995 -14.6417 2.8796 -4.37161
471 1 10.3274 -12.4925 5.4819 -4.58874
472 1 13.2358 -14.3058 5.63411 -3.78814
473 1 12.7987 -12.3094 2.30151 -4.44428
474 1 11.7107 -13.6363 3.97777 -4.55355
475 1 11.578 -11.0679 6.79869 -4.50073
476 1 13.1635 -12.4472 7.98349 -4.7438
477 1 14.1539 -11.0247 3.69693 -4.58408
478 1 14.8218 -12.5341 5.46578 -3.76918
479 1 15.5385 -12.339 7.67905 -4.44231
480 1 -17.5514 -7.91039 2.79426 -4.58808
481 1 -18.8454 -4.92924 8.69427 -4.23116
482 1 -16.5493 -8.77188 6.42891 -4.37748
483 1 -16.3409 -6.52624 4.12089 -4.61173
484 1 -15.2916 -10.0788 2.78431 -4.55901
485 1 -14.9161 -7.49125 5.57057 -4.61146
486 1 -12.3991 -10.1347 5.36374 -4.3586
487 1 -12.4012 -7.72597 2.32196 -4.43175
488 1 -13.738 -8.77828 3.98551 -4.66042
489 1 -13.6615 -6.24543 7.2447 -4.46196
490 1 -11.6225 -8.891 7.26176 -4.3844
491 1 -11.4429 -6.31629 3.90541 -4.5175
492 1 -9.99131 -10.0547 2.20438 -4.55602
493 1 -10.3682 -7.63467 5.61173 -4.49737
494 1 -7.71974 -10.2848 5.47939 -4.5643
495 1 -7.75861 -7.69113 2.47297 -4.49791
496 1 -8.97205 -8.84219 4.00422 -4.45698
497 1 -9.06539 -6.24119 7.01647 -4.58095
498 1 -6.59595 -8.91231 7.11969 -4.52178
499 1 -6.33129 -6.47561 3.98167 -4.57435
500 1 -5.13031 -10.1331 2.48759 -4.56501
501 1 -5.12859 -7.83208 5.48867 -4.52281
502 1 -2.48515 -10.1239 5.59032 -4.5321
503 1 -2.53309 -7.39377 2.58759 -4.51744
504 1 -3.67724 -8.87055 3.97001 -4.54386
505 1 -4.09569 -6.32587 7.03537 -4.54592
506 1 -1.34831 -8.71159 7.10604 -4.59542
507 1 -1.22622 -6.14356 4.14349 -4.5151
508 1 -0.0294272 -9.84845 2.30682 -4.52883
509 1 0.1235 -7.46471 5.66353 -4.54652
510 1 2.47881 -10.0996 5.28083 -4.58733
511 1 2.45946 -7.31732 2.70581 -4.5138
512 1 1.1772 -8.67517 3.96945 -4.53017
513 1 1.37833 -6.10409 7.06009 -4.57507
514 1 3.65073 -8.81011 6.90721 -4.54129
515 1 3.91667 -6.12134 4.19194 -4.57696
516 1 4.85806 -9.77875 2.54344 -4.54451
517 1 5.20429 -7.49432 5.65569 -4.58539
518 1 7.59951 -9.91946 5.49729 -4.56196
519 1 7.49361 -7.1166 2.56391 -4.53526
520 1 6.36207 -8.6824 3.94052 -4.54023
521 1 6.40306 -6.04765 7.23577 -4.54056
522 1 8.8996 -8.66299 7.1496 -4.58611
523 1 8.88766 -5.99658 4.12736 -4.49793
524 1 9.9179 -9.55421 2.62523 -4.51211
525 1 10.1296 -7.2584 5.86603 -4.47453
526 1 12.9574 -9.82851 5.38117 -4.57216
527 1 12.5538 -7.0223 2.83711 -4.41348
528 1 11.2822 -8.53282 4.24157 -4.56761
529 1 11.4637 -6.29339 7.60405 -4.57639
530 1 14.3024 -8.68653 7.01039 -4.5192
531 1 13.9173 -5.93845 4.59873 -4.43024
532 1 15.4051 -9.43905 2.37192 -4.21901
533 1 15.5736 -7.06744 5.86069 -4.58879
534 1 16.5355 -5.52366 2.59674 -4.49102
535 1 16.1732 -7.66618 3.61653 -3.82691
536 1 16.806 -5.96661 7.57579 -3.88872
537 1 18.1479 -4.0897 3.65007 -4.44696
538 1 -17.7792 -5.21205 5.50085 -4.52208
539 1 -17.048 -3.14595 2.39428 -4.33287
540 1 -18.7603 -4.1374 3.46568 -4.4471
541 1 -19.197 -2.13234 4.60119 -4.01272
542 1 -16.3206 -3.83162 6.66652 -4.65952
543 1 -16.9849 -1.19501 3.86331 -5.31041
544 1 -14.8964 -5.70227 2.52298 -4.41328
545 1 -15.2066 -2.33679 5.23529 -4.28598
546 1 -12.8064 -5.09077 5.40869 -4.47576
547 1 -12.5903 -2.62866 2.26745 -4.555
548 1 -13.9991 -3.74132 3.82975 -4.4812
549 1 -13.9592 -1.16468 6.92409 -4.4895
550 1 -11.4078 -3.69534 6.82242 -4.55045
551 1 -11.4989 -1.24197 3.95533 -4.52281
552 1 -9.9195 -5.07278 2.48926 -4.50519
553 1 -10.0758 -2.2962 5.47002 -4.52939
554 1 -7.65517 -5.09047 5.518 -4.53513
555 1 -7.57564 -2.52901 2.36884 -4.51203
556 1 -8.77654 -3.69036 4.07318 -4.52846
557 1 -8.94506 -1.1492 7.24255 -4.54229
558 1 -6.43738 -3.86096 7.20881 -4.51592
559 1 -6.50753 -1.23881 4.14548 -4.42427
560 1 -5.136 -4.94005 2.55256 -4.49272
561 1 -5.16433 -2.50086 5.63956 -4.58584
562 1 -2.55083 -5.0912 5.64974 -4.53797
563 1 -2.50718 -2.32994 2.59957 -4.50366
564 1 -3.80629 -3.6662 4.14312 -4.54935
565 1 -3.88865 -1.26708 7.15778 -4.49146
566 1 -1.23398 -3.71667 7.20647 -4.57871
567 1 -1.17954 -1.08388 4.18741 -4.52223
568 1 -0.0512668 -4.90301 2.55542 -4.53004
569 1 0.0841184 -2.36273 5.71238 -4.54594
570 1 2.64225 -4.67215 5.57782 -4.56819
571 1 2.64372 -2.11161 2.70837 -4.50084
572 1 1.19375 -3.48791 3.97 -4.53341
573 1 1.29223 -1.09169 7.24207 -4.52004
574 1 3.87104 -3.50859 7.2321 -4.54169
575 1 3.85557 -0.836104 4.20988 -4.57549
576 1 5.07868 -4.74289 2.56649 -4.51395
577 1 5.19241 -2.06789 5.74742 -4.50884
578 1 7.5869 -4.66397 5.70308 -4.50856
579 1 7.64651 -2.12162 2.65519 -4.51417
580 1 6.3102 -3.32979 4.14443 -4.528
581 1 6.49307 -0.913524 7.46298 -4.58085
582 1 9.03956 -3.81746 7.3259 -4.48688
583 1 8.81569 -1.01245 4.40622 -4.48749
584 1 10.1966 -4.64774 2.79544 -4.48561
585 1 10.1231 -2.26371 6.02186 -4.59638
586 1 12.7795 -4.8391 6.30292 -4.52684
587 1 12.7934 -2.45518 3.07184 -4.28078
588 1 11.4258 -3.66849 4.61827 -4.57097
589 1 11.5559 -1.0857 7.49021 -4.53763
590 1 14.151 -3.41235 7.66301 -4.53314
591 1 13.7506 -0.905949 4.65415 -4.58577
592 1 14.5519 -4.18231 3.1075 -4.91588
593 1 15.2454 -1.812 6.22005 -4.52667
594 1 17.6062 -4.23113 5.96532 -3.52347
595 1 18.4177 -2.48982 1.86474 -4.2861
596 1 16.2745 -2.8887 4.42332 -4.3952
597 1 16.7452 -0.0267147 7.01376 -4.33923
598 1 18.7632 -0.823895 7.91069 -4.42673
599 1 19.3862 -0.570431 3.08673 -4.26288
600 1 -19.187 -0.294606 2.9948 -4.04905
601 1 -17.3819 0.361435 5.62594 -4.4794
602 1 -16.8793 2.48908 3.17302 -4.61106
603 1 -18.7696 1.72465 4.32627 -4.53322
604 1 -18.3647 3.47337 6.16685 -4.448
605 1 -16.1546 1.43781 7.26943 -4.63107
606 1 -16.5526 4.09994 4.81231 -4.52513
607 1 -15.1444 -0.26066 2.50349 -4.33298
608 1 -14.9343 2.67885 5.65871 -4.4528
609 1 -12.6091 0.193393 5.41141 -4.48766
610 1 -12.8182 2.76502 2.28737 -4.54284
611 1 -13.9497 1.37086 3.83953 -4.48378
612 1 -13.8477 4.02677 7.23018 -4.53603
613 1 -11.4821 1.22165 7.1515 -4.45946
614 1 -11.4041 3.8101 3.82924 -4.48501
615 1 -10.3228 0.0623017 2.50061 -4.50472
616 1 -10.2646 2.42567 5.58792 -4.50097
617 1 -7.54205 0.237537 5.87158 -4.49352
618 1 -7.54428 2.38114 2.40477 -4.45659
619 1 -8.89682 1.10523 4.15742 -4.43471
620 1 -9.1358 3.87744 7.00645 -4.44288
621 1 -6.40181 1.674 7.38598 -4.48863
622 1 -6.35084 3.69306 3.93745 -4.50135
623 1 -5.08754 -0.0119475 2.53652 -4.50864
624 1 -4.99412 2.57477 5.60405 -4.43249
625 1 -2.60781 0.0991067 5.56832 -4.56094
626 1 -2.31372 2.45214 2.53445 -4.5706
627 1 -3.84091 1.38758 4.00683 -4.50177
628 1 -3.93561 4.13455 7.10951 -4.53267
629 1 -1.25316 1.42845 7.12167 -4.48694
630 1 -1.36432 4.03531 3.90286 -4.53321
631 1 0.137058 0.0801677 2.71738 -4.47737
632 1 -0.0936579 2.6203 5.38507 -4.55411
633 1 2.46623 0.351742 5.64713 -4.53529
634 1 2.70724 3.10653 2.6414 -4.4891
635 1 1.4796 1.56931 3.94074 -4.53973
636 1 1.2076 3.93896 6.99986 -4.52372
637 1 4.03324 1.36935 6.97971 -4.48217
638 1 4.02364 4.58808 4.04694 -4.51096
639 1 5.06518 0.514009 2.6297 -4.53809
640 1 5.08085 2.96883 5.50412 -4.56282
641 1 7.76957 0.498107 5.95809 -4.51945
642 1 7.80387 2.94215 2.65231 -4.53703
643 1 6.51363 1.6133 4.19526 -4.5538
644 1 6.50256 4.0531 7.08617 -4.55483
645 1 9.16852 1.69496 7.43739 -4.53267
646 1 9.02441 4.22276 4.22636 -4.49261
647 1 10.122 0.220118 2.80739 -4.569
648 1 10.2022 2.9544 5.74116 -4.48707
649 1 12.5293 0.516359 5.99386 -4.48525
650 1 12.6851 2.915 2.66653 -4.57441
651 1 11.4724 1.65918 4.1795 -4.51109
652 1 11.5505 4.01053 7.42092 -4.47444
653 1 13.9285 1.53385 7.65711 -4.4711
654 1 14.1422 4.14127 4.15979 -4.37954
655 1 15.0029 -0.0583886 2.82841 -4.52406
656 1 15.069 2.44236 5.80005 -4.35264
657 1 17.8369 0.215132 4.90552 -4.51989
658 1 17.3759 2.10852 1.98208 -4.6532
659 1 16.2857 1.51967 3.99038 -4.58346
660 1 16.6342 3.59181 7.15276 -4.39482
661 1 19.1426 2.06414 5.67345 -4.44192
662 1 18.8408 3.66096 2.90863 -4.61063
663 1 20.2631 1.80465 3.46101 -4.17465
664 1 -18.7518 5.77181 6.26795 -4.4273
665 1 -17.3876 7.76312 2.82585 -3.70175
666 1 -18.1678 5.66168 3.80382 -4.29701
667 1 -16.6747 6.79661 7.12054 -4.52362
668 1 -16.0602 9.4922 3.97096 -4.58907
669 1 -15.6553 5.5206 1.84761 -4.544
670 1 -15.191 7.76117 5.34546 -4.48507
671 1 -12.6998 5.21631 5.39199 -4.39608
672 1 -12.7013 7.68655 2.45195 -4.53283
673 1 -14.2152 6.29942 3.66874 -4.32976
674 1 -13.8239 8.88347 6.91094 -4.65733
675 1 -11.2357 6.31492 6.86627 -4.48409
676 1 -11.0689 8.766 3.87494 -4.54819
677 1 -10.007 5.04657 2.2676 -4.55739
678 1 -9.79178 7.45532 5.36231 -4.52423
679 1 -7.58852 4.83908 5.6056 -4.41781
680 1 -7.28166 7.66833 2.39224 -4.47889
681 1 -8.50313 6.08436 3.88148 -4.5084
682 1 -8.81317 8.80372 7.1095 -4.46731
683 1 -6.52767 6.46711 7.17302 -4.46535
684 1 -6.32041 9.11256 3.94684 -4.48471
685 1 -5.19334 5.02968 2.47472 -4.53354
686 1 -5.23775 7.73655 5.56558 -4.50088
687 1 -2.63117 5.29298 5.53524 -4.50822
688 1 -2.69903 7.70902 2.46025 -4.54039
689 1 -4.01726 6.4049 3.90896 -4.51263
690 1 -3.93304 9.06202 7.139 -4.51233
691 1 -1.18124 6.37561 7.10267 -4.51709
692 1 -1.46522 8.98901 4.07421 -4.49077
693 1 -0.0210575 5.29766 2.4596 -4.53646
694 1 -0.0301681 7.62575 5.39383 -4.47919
695 1 2.44642 5.5242 5.60457 -4.51714
696 1 2.74691 7.88136 2.52792 -4.51747
697 1 1.30437 6.5807 3.87685 -4.50028
698 1 0.97759 8.94877 7.21551 -4.50227
699 1 4.02494 6.62347 6.97205 -4.4891
700 1 3.99833 9.15851 4.08489 -4.44707
701 1 5.40499 5.60991 2.40361 -4.49652
702 1 5.39504 8.23351 5.64966 -4.50216
703 1 7.84026 5.57457 5.82069 -4.52769
704 1 7.82462 7.98808 2.34525 -4.43658
705 1 6.59903 6.81713 4.10657 -4.45232
706 1 6.65045 9.48666 7.2841 -4.46934
707 1 9.30777 6.93496 7.32925 -4.43171
708 1 8.82205 9.2829 4.13197 -4.57614
709 1 10.2264 5.51098 2.59864 -4.43586
710 1 10.446 8.2439 5.53224 -4.37833
711 1 12.83 5.24235 5.87374 -4.4855
712 1 12.8643 7.64031 2.71477 -4.43336
713 1 11.5227 6.56968 4.29354 -4.54361
714 1 12.1324 9.49561 8.41072 -4.49462
715 1 14.1922 6.65437 7.24743 -4.33916
716 1 13.9579 8.70785 4.5483 -4.23464
717 1 15.0799 5.08622 2.17388 -4.44496
718 1 15.6036 8.36675 6.39113 -4.68607
719 1 17.8458 4.02709 5.13471 -4.31713
720 1 18.6094 7.08743 2.70016 -4.32482
721 1 16.3113 6.7027 3.46883 -4.41567
722 1 17.0805 9.63612 7.88862 -4.07822
723 1 18.0972 6.41016 4.97267 -4.22289
724 1 -15.892 11.0478 5.68756 -3.56126
725 1 -15.0534 10.5292 2.12257 -4.57532
726 1 -14.8955 12.7702 4.42779 -4.59185
727 1 -12.2326 10.0094 5.44881 -4.52143
728 1 -11.7434 12.5957 2.57953 -4.13712
729 1 -13.3657 11.2 3.66689 -4.71345
730 1 -13.1602 13.9309 5.64612 -4.07725
731 1 -11.1923 11.5412 6.85702 -4.6102
732 1 -11.0675 14.2095 4.27078 -5.36571
733 1 -9.80961 10.179 2.48002 -4.52619
734 1 -9.75701 12.6399 5.37921 -4.37616
735 1 -7.5028 10.2858 5.68152 -4.46036
736 1 -7.60432 13.0503 2.20379 -4.52129
737 1 -8.37931 11.4901 3.87079 -4.48356
738 1 -8.4223 14.0992 6.80308 -4.57845
739 1 -6.15694 11.7503 7.00381 -4.44785
740 1 -6.21906 14.3648 3.5497 -4.61891
741 1 -5.10501 10.3864 2.36525 -4.53531
742 1 -5.09389 12.9754 5.10298 -4.49027