ITEM: TIMESTEP
300000
ITEM: NUMBER OF ATOMS
4050
ITEM: BOX BOUNDS ss ss pp
-2.0524870810285094e+01 2.0561392998307344e+01
-2.0144809180326519e+01 2.0443238289530754e+01
-4.0732500000000007e+00 5.8383250000000004e+01
ITEM: ATOMS id type x y z c_peratom
1 1 -11.6215 -15.1694 -1.89952 -3.83213
2 1 -7.00101 -17.3684 -3.48157 -4.10349
3 1 -8.77916 -16.9677 -0.165446 -4.56622
4 1 -6.85943 -18.4094 -0.356608 -3.67612
5 1 -5.69069 -15.9545 -2.31387 -4.72017
6 1 -4.71405 -17.7917 -1.2993 -4.65335
7 1 -2.42706 -17.786 -3.93805 -4.66141
8 1 -4.44242 -18.8327 -3.41512 -3.95049
9 1 -3.70266 -16.8123 0.593881 -4.34909
10 1 -0.440061 -18.8968 0.97558 -4.38084
11 1 -1.4083 -16.1429 -2.529 -4.4949
12 1 0.274946 -19.0757 -2.33754 -4.48778
13 1 -0.344072 -17.3783 -0.875607 -4.46368
14 1 3.05719 -18.0422 -4.1942 -4.33619
15 1 2.61804 -19.5906 -2.39219 -4.23558
16 1 1.41206 -16.409 0.413861 -4.61675
17 1 3.40252 -18.7035 -0.305246 -4.14942
18 1 3.4676 -16.3426 -2.66173 -4.6427
19 1 5.199 -17.437 -1.43367 -4.47823
20 1 6.6409 -18.1756 -3.1523 -4.30788
21 1 9.08652 -16.7925 -0.229158 -4.26742
22 1 5.97714 -16.166 0.505308 -4.424
23 1 8.4751 -16.5731 -2.54103 -4.10176
24 1 10.6572 -15.4194 0.812095 -4.53442
25 1 -14.4328 -12.3202 -2.36782 -4.19271
26 1 -15.1123 -13.3231 -0.330625 -4.29696
27 1 -13.8366 -15.2926 -0.965027 -4.34472
28 1 -12.0823 -12.9331 57.8762 -4.48829
29 1 -13.4113 -14.2828 -3.13298 -4.47966
30 1 -13.6144 -11.4625 -0.255572 -4.19058
31 1 -11.1885 -14.0281 0.0864696 -4.89076
32 1 -11.1839 -11.4341 -2.90532 -4.5434
33 1 -9.63677 -14.9982 58.4186 -4.07036
34 1 -9.91005 -12.5237 -1.14524 -4.36606
35 1 -7.40504 -15.1519 -1.0199 -4.60585
36 1 -7.24676 -12.3919 58.431 -4.43319
37 1 -8.33291 -13.6786 -2.5569 -4.59689
38 1 -8.64468 -11.0705 0.412552 -4.49321
39 1 -6.30021 -13.8988 0.659547 -4.54169
40 1 -6.11266 -11.0827 -2.55558 -4.44839
41 1 -4.65291 -14.8217 58.4173 -4.48724
42 1 -5.0113 -12.367 -0.829377 -4.50903
43 1 -2.79117 -15.2646 -0.872123 -4.39056
44 1 -2.25227 -12.4722 58.3452 -4.4867
45 1 -3.50798 -13.5693 -2.41523 -4.45903
46 1 -3.5655 -11.096 0.519495 -4.57659
47 1 -0.982759 -13.9821 0.386621 -4.50736
48 1 -1.09053 -11.2969 -2.48292 -4.55061
49 1 0.216804 -15.4104 58.3336 -4.37507
50 1 0.215545 -12.6555 -1.03289 -4.51297
51 1 2.56122 -14.8743 -1.01066 -4.42147
52 1 2.79298 -12.5067 58.4409 -4.47142
53 1 1.32254 -13.8434 -2.68514 -4.52414
54 1 1.26811 -11.0914 0.455876 -4.56009
55 1 3.74655 -13.7932 0.69407 -4.50535
56 1 4.00052 -11.351 -2.31009 -4.5266
57 1 4.95991 -15.0209 -4.01563 -4.63225
58 1 5.2828 -12.5754 -0.711034 -4.48656
59 1 7.50409 -15.0639 -0.884368 -5.01741
60 1 7.79511 -12.5828 58.3955 -4.44863
61 1 6.32965 -13.7485 -2.53756 -4.32538
62 1 6.38215 -11.1652 0.989409 -4.51314
63 1 8.91618 -13.6753 0.652419 -4.42915
64 1 8.56103 -11.2727 -2.20197 -4.51355
65 1 10.2089 -15.2712 -3.82798 -4.15183
66 1 10.1575 -12.0806 -0.591144 -4.35539
67 1 12.2144 -14.5485 -0.874207 -4.20652
68 1 11.8739 -11.6548 -3.72689 -4.38648
69 1 10.9564 -13.4286 -2.47349 -4.88561
70 1 11.4712 -11.1487 1.07643 -4.55961
71 1 14.0186 -13.0482 -0.0809017 -3.94536
72 1 13.8806 -11.0637 -1.29687 -4.91203
73 1 15.7821 -12.3532 -1.85492 -3.94891
74 1 16.0053 -10.3331 -0.575697 -4.08175
75 1 -17.3196 -7.71828 57.4245 -4.24275
76 1 -18.5928 -5.97571 1.15297 -4.15238
77 1 -16.0857 -8.8885 0.547988 -3.60686
78 1 -16.5572 -6.74303 -2.84253 -4.30662
79 1 -15.0175 -10.576 58.4373 -4.27045
80 1 -15.1533 -7.6958 -1.10548 -4.4753
81 1 -12.2633 -9.92665 -1.42307 -4.49263
82 1 -12.4894 -7.48303 58.2857 -4.55043
83 1 -13.8496 -8.85629 -2.77109 -4.60432
84 1 -13.7786 -6.50068 0.507887 -4.48347
85 1 -11.0382 -8.98459 0.434698 -4.4153
86 1 -11.4343 -6.1185 -2.48982 -4.5198
87 1 -9.85844 -10.0062 58.1979 -4.57568
88 1 -10.0813 -7.39697 -1.05415 -4.52738
89 1 -7.42573 -9.65226 -1.02106 -4.5119
90 1 -7.49339 -7.33179 -4.28253 -4.52306
91 1 -8.80956 -8.58285 -2.64997 -4.5203
92 1 -8.83821 -6.08014 0.591407 -4.47136
93 1 -6.22831 -8.40643 0.552523 -4.48384
94 1 -6.32724 -6.16829 -2.55964 -4.52443
95 1 -4.81663 -9.94373 58.1396 -4.52906
96 1 -4.96677 -7.35937 -1.08136 -4.49796
97 1 -2.44476 -9.82291 -1.13455 -4.52336
98 1 -2.38764 -7.40147 -4.31338 -4.53375
99 1 -3.66589 -8.58872 -2.69842 -4.50795
100 1 -3.68746 -6.12278 0.515786 -4.52316
101 1 -1.33025 -8.60428 0.52098 -4.51113
102 1 -1.28375 -6.12345 -2.60091 -4.56694
103 1 0.16117 -10.0013 -4.13795 -4.54434
104 1 0.093573 -7.39926 -1.09237 -4.50346
105 1 2.66149 -9.83862 -0.916124 -4.54168
106 1 2.53016 -7.38554 -4.29179 -4.51534
107 1 1.41008 -8.70661 -2.62368 -4.52392
108 1 1.39446 -6.06557 0.537201 -4.52912
109 1 4.05529 -8.63351 0.611218 -4.49737
110 1 3.79024 -6.15735 -2.48388 -4.50483
111 1 5.23516 -10.0841 58.58 -4.4931
112 1 5.21062 -7.30979 -0.98604 -4.50981
113 1 7.44539 -9.86365 -0.604303 -4.47658
114 1 7.70813 -7.51108 -4.1904 -4.52329
115 1 6.49582 -8.65956 -2.38891 -4.47231
116 1 6.17461 -6.07755 0.79965 -4.44672
117 1 8.84843 -8.60417 0.836158 -4.55517
118 1 8.85895 -6.27466 -2.53115 -4.39366
119 1 10.1405 -10.0747 -3.46567 -4.45582
120 1 10.0664 -7.11661 -0.629308 -4.47027
121 1 12.4937 -9.44124 -0.197052 -4.43121
122 1 12.2852 -7.23537 -3.73834 -4.42275
123 1 11.16 -8.57478 -2.01425 -4.48194
124 1 11.4849 -6.01748 0.992691 -4.49441
125 1 14.0282 -8.19899 0.925167 -4.59043
126 1 13.5946 -6.18509 -2.24638 -4.59154
127 1 14.4233 -9.68011 -3.22722 -4.49686
128 1 15.2648 -7.15092 -0.839688 -4.64531
129 1 16.4362 -6.46334 -3.93791 -4.42846
130 1 16.3036 -8.70641 -2.35804 -4.31789
131 1 16.4715 -5.32667 0.0279937 -4.51535
132 1 18.4086 -5.32687 -3.94047 -3.99635
133 1 -18.1416 -5.45556 -1.36002 -4.06277
134 1 -17.502 -2.60679 -4.01045 -4.96239
135 1 -18.7763 -3.24493 -2.12825 -4.1775
136 1 -17.817 -2.10878 -0.368561 -4.56182
137 1 -16.661 -4.98705 0.528322 -4.32151
138 1 -16.2575 -0.998342 -2.9276 -4.57091
139 1 -15.2111 -5.08287 -3.89379 -4.56326
140 1 -15.6251 -2.3485 -1.10057 -4.45178
141 1 -12.8534 -4.86818 -1.00802 -4.56612
142 1 -12.6918 -2.49918 -3.95244 -4.45569
143 1 -14.1217 -3.55937 -2.48536 -4.47011
144 1 -14.2108 -1.26593 0.443809 -4.53036
145 1 -11.6255 -3.63177 0.617779 -4.56228
146 1 -11.5132 -1.17401 -2.51161 -4.52171
147 1 -10.314 -4.89632 -4.08274 -4.49292
148 1 -10.21 -2.40233 -0.952959 -4.50073
149 1 -7.67175 -4.87479 -1.13536 -4.52404
150 1 -7.5331 -2.49661 -4.23019 -4.52331
151 1 -9.05178 -3.51725 -2.57431 -4.49509
152 1 -8.87607 -1.19622 0.487277 -4.51209
153 1 -6.42385 -3.72552 0.529286 -4.51509
154 1 -6.29419 -1.14169 -2.55791 -4.56718
155 1 -4.8071 -4.97374 -4.05422 -4.53062
156 1 -5.13077 -2.44455 -0.99939 -4.53714
157 1 -2.49973 -4.84071 -1.10458 -4.52258
158 1 -2.53318 -2.2404 58.2023 -4.51829
159 1 -3.78125 -3.48398 -2.64225 -4.52253
160 1 -3.81588 -1.13977 0.460443 -4.55828
161 1 -1.12598 -3.66405 0.479006 -4.56877
162 1 -1.39046 -1.148 -2.48824 -4.54453
163 1 0.0368097 -4.76136 -4.05948 -4.53055
164 1 0.153311 -2.25381 -0.987777 -4.49707
165 1 2.68931 -4.70798 -0.903418 -4.54766
166 1 2.57144 -2.20413 58.3873 -4.49539
167 1 1.3956 -3.56023 -2.54014 -4.54942
168 1 1.39786 -1.03968 0.837343 -4.51881
169 1 4.01349 -3.41574 0.547994 -4.48808
170 1 3.6591 -0.960444 -2.31802 -4.4967
171 1 5.16954 -4.88928 -3.97829 -4.55962
172 1 5.22156 -2.16518 -1.07635 -4.51638
173 1 7.71043 -4.99561 -0.821875 -4.41798
174 1 7.68171 -2.33269 -3.98642 -4.51182
175 1 6.49291 -3.70097 -2.34081 -4.53485
176 1 6.2716 -0.973458 0.725332 -4.48099
177 1 8.55436 -3.63862 0.992608 -4.44781
178 1 8.89281 -1.03825 -2.31096 -4.48125
179 1 9.9785 -4.73512 -3.7515 -4.48784
180 1 10.0379 -2.30537 -0.546659 -4.43538
181 1 12.6037 -4.76144 -0.609776 -4.54407
182 1 12.32 -2.2887 -3.91458 -4.44242
183 1 11.2669 -3.58 -2.19501 -4.44927
184 1 11.5132 -1.23664 1.1593 -4.45278
185 1 14.5702 -3.98371 0.424177 -4.46532
186 1 13.3201 -1.13955 -2.11696 -4.40605
187 1 14.8744 -4.80276 -3.52552 -4.58067
188 1 15.1086 -2.07283 -0.827564 -4.51905
189 1 18.0671 -4.44323 -1.6845 -4.52053
190 1 17.6949 -2.12622 -4.13222 -4.73033
191 1 16.319 -3.19524 -2.5103 -4.69259
192 1 16.5061 -1.33866 0.908123 -4.27755
193 1 19.1052 -2.50437 -0.54003 -3.78665
194 1 19.0669 -0.647445 -2.82211 -3.77362
195 1 -19.4461 -1.31507 -3.57551 -4.31547
196 1 -18.6347 0.081852 0.0492366 -4.29929
197 1 -17.8386 2.35713 -3.77521 -4.37117
198 1 -18.0457 0.308588 -2.37332 -4.40778
199 1 -18.1342 4.50063 1.60847 -4.19026
200 1 -16.754 1.34405 0.586377 -4.50689
201 1 -16.5584 3.54094 -2.18152 -4.4522
202 1 -14.971 0.190579 57.9911 -4.54931
203 1 -15.1287 2.17948 -1.00866 -4.48284
204 1 -12.7904 0.0250388 -0.932315 -4.51832
205 1 -12.6487 2.61078 58.3287 -4.57166
206 1 -13.79 1.1523 -2.70744 -4.39645
207 1 -13.9537 3.73394 0.338853 -4.49286
208 1 -11.4267 1.30597 0.562087 -4.56303
209 1 -11.3843 3.92451 -2.59397 -4.5595
210 1 -10.368 0.205385 58.3731 -4.54684
211 1 -10.2082 2.69731 -0.984831 -4.56655
212 1 -7.77921 0.0975966 -1.1375 -4.53873
213 1 -7.66084 2.76585 58.2873 -4.53144
214 1 -9.04278 1.50809 -2.65007 -4.56459
215 1 -8.80015 4.03006 0.357889 -4.57229
216 1 -6.45121 1.19865 0.479389 -4.56667
217 1 -6.27965 4.04589 -2.68133 -4.50321
218 1 -5.11641 0.323045 58.3864 -4.52173
219 1 -5.28692 2.72459 -0.86387 -4.47522
220 1 -2.60374 0.286656 -1.07785 -4.562
221 1 -2.5782 2.75241 -4.23671 -4.53429
222 1 -3.80742 1.63294 -2.56235 -4.48041
223 1 -3.88065 3.96228 0.397972 -4.56798
224 1 -1.13473 1.30374 0.454032 -4.52437
225 1 -1.51915 4.32489 -2.72638 -4.40304
226 1 -0.0790422 0.111441 -3.98592 -4.47856
227 1 -0.117628 2.84525 -1.11555 -4.45766
228 1 2.42737 0.50896 -0.737218 -4.49212
229 1 2.60918 2.60722 -4.01078 -4.48329
230 1 1.18893 1.53277 -2.51541 -4.54157
231 1 1.15651 4.059 0.446049 -4.57367
232 1 3.92898 1.69033 0.665758 -4.55516
233 1 3.57139 4.10344 -2.51656 -4.5315
234 1 5.116 0.0889808 -3.94521 -4.52513
235 1 5.15979 2.95374 -0.998468 -4.50252
236 1 7.59125 0.33528 -0.759711 -4.53627
237 1 7.57106 2.70219 -4.0871 -4.55398
238 1 6.34443 1.5154 -2.45627 -4.52156
239 1 6.28621 4.20818 0.683377 -4.51742
240 1 9.0229 1.33599 0.864003 -4.53416
241 1 8.7198 3.95609 -2.41946 -4.50616
242 1 10.0604 0.29718 -3.78296 -4.34825
243 1 9.92602 2.79642 -0.722109 -4.54242
244 1 12.6047 0.279763 -0.310756 -4.47341
245 1 12.4337 2.41667 -3.28263 -4.62341
246 1 11.0961 1.2318 -1.86397 -4.44091
247 1 11.3615 4.00266 0.747334 -4.52342
248 1 13.9136 1.44144 1.27687 -4.54643
249 1 13.9756 3.84658 -2.1448 -4.53474
250 1 14.9524 -0.195002 -3.55178 -4.53624
251 1 15.079 2.48566 -0.503162 -4.3897
252 1 17.9338 -0.414247 -0.73231 -4.98281
253 1 17.0716 2.23903 -3.43168 -4.39093
254 1 16.1605 0.803604 -1.85213 -4.34906
255 1 16.6739 3.98751 0.408891 -4.85598
256 1 19.3267 0.819663 0.96076 -4.18242
257 1 19.0028 3.4571 -3.66672 -4.13131
258 1 19.0345 1.18696 58.1525 -4.0768
259 1 -18.0055 5.10461 -1.20091 -3.92335
260 1 -17.3533 8.12511 57.3905 -4.41942
261 1 -17.7599 6.4768 -3.32255 -4.14311
262 1 -16.7176 6.83702 -0.102916 -4.50557
263 1 -16.5372 9.2211 -3.15018 -3.78321
264 1 -15.8115 4.97748 58.4583 -5.27811
265 1 -15.2547 7.95053 -1.65107 -4.60946
266 1 -12.9541 5.23743 -1.36613 -4.57341
267 1 -12.5563 7.65463 58.1382 -4.58266
268 1 -14.1535 6.4405 -3.04328 -4.30118
269 1 -14.2851 9.34707 0.0580327 -4.45392
270 1 -11.5522 6.50385 0.061007 -4.55952
271 1 -11.3405 9.13982 -2.84874 -4.51845
272 1 -10.1242 5.0557 58.1981 -4.55271
273 1 -10.1116 7.75164 -1.41197 -4.57777
274 1 -7.75959 5.38378 -1.30678 -4.53267
275 1 -7.42501 7.79686 57.9603 -4.52958
276 1 -8.88421 6.57775 -3.02244 -4.54241
277 1 -8.66311 9.13678 0.0078001 -4.47105
278 1 -6.31472 6.40195 0.307771 -4.55408
279 1 -6.38622 9.03253 -2.76854 -4.55576
280 1 -5.03285 5.13858 58.1253 -4.48325
281 1 -5.14005 7.83388 -1.23591 -4.54107
282 1 -2.78976 5.46545 -1.04673 -4.47364
283 1 -2.43633 7.87795 58.3851 -4.49688
284 1 -3.91675 6.618 -2.81559 -4.53298
285 1 -3.75986 9.1167 0.261568 -4.5357
286 1 -1.47221 6.60137 0.565565 -4.56536
287 1 -1.01264 9.02783 -2.65303 -4.51656
288 1 -0.132357 5.17123 -4.41172 -4.49942
289 1 -0.031033 7.86546 -0.805214 -4.44586
290 1 2.40267 5.48125 -0.909278 -4.49575
291 1 2.42153 7.69764 -4.00844 -4.49302
292 1 0.922222 6.41547 -2.6085 -4.43096
293 1 1.37386 9.19193 0.741833 -4.5472
294 1 3.85764 6.66215 0.661893 -4.48244
295 1 3.64975 8.82339 -2.41685 -4.4481
296 1 5.01745 5.2192 -4.02064 -4.50975
297 1 5.25362 7.90676 -0.869656 -4.50448
298 1 7.62979 5.39051 -0.877993 -4.57837
299 1 7.2673 7.60047 58.0345 -4.50749
300 1 6.30058 6.54915 -2.50855 -4.47471
301 1 6.69419 9.31769 0.5722 -4.40151
302 1 9.01166 6.86372 0.445576 -4.36583
303 1 8.69785 8.95314 -3.02565 -4.3741
304 1 10.1119 5.22906 -3.79229 -4.595
305 1 10.1526 8.02434 -1.37871 -4.3263
306 1 12.6953 5.30036 -0.803213 -4.53919
307 1 12.9506 7.24781 58.0069 -4.89859
308 1 11.5416 6.54566 -2.43963 -4.37488
309 1 11.8484 9.55395 1.55803 -4.46189
310 1 13.9365 6.42455 0.905374 -4.56646
311 1 13.3675 9.2448 -3.07556 -4.16454
312 1 14.8729 4.68382 58.4004 -4.44848
313 1 15.4976 7.72831 -0.280168 -4.49422
314 1 18.17 4.73334 -1.32371 -3.96461
315 1 16.5853 6.36775 58.2194 -4.61874
316 1 16.7473 6.42141 -1.92873 -3.67042
317 1 16.3626 8.35934 1.96112 -4.33683
318 1 18.7674 5.00467 1.03555 -4.14403
319 1 -15.6711 12.8816 1.76796 -4.17312
320 1 -14.9539 10.6133 58.3376 -4.66858
321 1 -14.9634 13.1093 -0.618472 -4.07837
322 1 -12.7114 10.3851 -1.1745 -4.48542
323 1 -12.5758 13.2739 -3.96621 -4.86067
324 1 -13.7414 11.9158 -2.46301 -4.27062
325 1 -13.5526 13.8959 1.30792 -4.83371
326 1 -11.3386 11.4571 0.412508 -4.45894
327 1 -11.8631 14.6766 -2.11355 -4.34107
328 1 -10.0743 10.4846 58.0217 -4.56808
329 1 -10.4703 12.8926 -1.27117 -4.47143
330 1 -7.70366 10.6473 -1.45125 -4.50827
331 1 -7.25924 12.909 57.975 -4.48711
332 1 -8.9264 12.082 -2.96652 -4.47862
333 1 -9.05918 13.9806 0.408113 -4.52104
334 1 -6.30932 11.5973 0.180308 -4.53102
335 1 -6.41911 14.2613 -2.90983 -4.48679
336 1 -4.94051 10.2802 58.3223 -4.54837
337 1 -5.19904 13.0741 -1.28551 -4.56141
338 1 -2.45157 10.3608 -1.26977 -4.55555
339 1 -2.5254 12.9599 58.1064 -4.54234
340 1 -3.78029 11.7594 -2.6611 -4.61245
341 1 -3.78953 14.4065 0.186957 -4.43593
342 1 -1.4601 11.5868 0.523956 -4.49451
343 1 -1.12989 13.9077 -2.64247 -4.55182
344 1 0.255053 10.4015 -4.1366 -4.52525
345 1 0.147328 12.7424 -1.04107 -4.48463
346 1 2.72892 10.3757 -0.837908 -4.49611
347 1 2.6761 12.9813 -4.20123 -4.44001
348 1 1.56184 11.6394 -2.57923 -4.49733
349 1 1.57959 13.8403 0.542124 -4.51126
350 1 3.94959 11.7455 0.637626 -4.48906
351 1 3.94353 14.0129 -2.38018 -4.40266
352 1 4.7519 10.0817 58.3665 -4.38213
353 1 5.43397 12.9097 -0.940612 -4.18634
354 1 7.71891 10.492 -1.33819 -4.34039
355 1 6.9815 12.3542 58.0499 -4.49628
356 1 5.88973 11.329 -2.56142 -4.47853
357 1 6.42596 14.431 1.06675 -4.25296
358 1 9.17821 12.2359 1.40025 -4.44536
359 1 8.02554 13.763 -2.7519 -4.41295
360 1 10.3521 10.2711 58.0939 -4.89439
361 1 9.04116 12.4239 -1.03358 -4.94254
362 1 12.0708 9.46714 -0.905478 -4.85849
363 1 12.2316 11.9149 57.7578 -4.35314
364 1 10.8392 11.0276 -2.0632 -4.25987
365 1 10.9055 13.823 1.50305 -4.454
366 1 13.711 10.9022 1.75454 -4.47335
367 1 12.5029 12.487 -2.3614 -4.35536
368 1 15.0893 9.9043 57.9028 -3.9769
369 1 13.6372 11.1771 -0.592773 -4.39232
370 1 15.0775 9.71134 -1.66901 -4.08056
371 1 -13.7584 15.0976 -0.709662 -3.91681
372 1 -12.389 16.096 1.63966 -3.88998
373 1 -9.16662 15.5544 58.3649 -4.43411
374 1 -7.92888 15.2443 -1.21467 -4.50466
375 1 -8.44023 17.8016 57.9267 -4.48379
376 1 -9.07248 16.9519 -2.29467 -4.40966
377 1 -6.36782 16.2241 0.242476 -4.70048
378 1 -7.21751 18.2893 -2.63473 -3.56512
379 1 -5.0715 15.7123 58.24 -4.535
380 1 -5.3535 17.9924 -1.02566 -4.56515
381 1 -2.46641 15.5345 -1.42684 -4.50587
382 1 -2.26019 18.2847 58.2736 -4.5213
383 1 -3.7985 17.0416 -2.67868 -4.47941
384 1 -4.92776 18.9524 1.12992 -3.94154
385 1 -1.33506 16.7121 0.549939 -4.44172
386 1 -0.338084 18.9633 -3.00957 -3.673
387 1 0.263604 15.2416 -3.96082 -4.55455
388 1 0.155967 17.7615 -0.933847 -4.61363
389 1 2.72852 15.3776 -0.725116 -4.49231
390 1 2.88344 17.9369 -3.48463 -4.42974
391 1 1.47704 16.5211 -2.39707 -4.56527
392 1 1.39017 19.0155 0.646196 -4.29171
393 1 3.665 16.6307 1.05952 -4.54834
394 1 2.96782 19.2399 -1.4886 -4.09728
395 1 5.05108 15.5386 -4.08695 -4.17883
396 1 4.88328 18.1425 -0.45459 -4.32817
397 1 8.34855 15.8895 -1.72732 -4.48928
398 1 9.00943 17.403 -3.38713 -4.298
399 1 6.08593 16.3017 -2.07524 -4.2064
400 1 5.67901 19.3224 1.49522 -3.60123
401 1 8.13836 16.0976 1.67114 -4.26666
402 1 9.63116 14.4919 58.0853 -4.64023
403 1 10.8859 13.9992 -0.903861 -4.07789
404 1 10.5403 15.7881 -2.63187 -4.36782
405 1 1.68326 19.9716 -3.45872 -4.40827
406 1 -12.5243 -15.846 1.06089 -4.26556
407 1 -7.68238 -17.8132 1.7734 -3.66523
408 1 -8.9389 -16.1467 6.57884 -3.6162
409 1 -6.43372 -18.4674 7.19031 -4.06794
410 1 -6.42913 -16.7224 3.627 -4.55267
411 1 -5.06638 -17.8687 5.14213 -4.48568
412 1 -2.37134 -18.0398 2.14526 -4.45447
413 1 -2.96215 -18.7871 4.41729 -3.54531
414 1 -3.6685 -16.3206 6.13167 -4.51135
415 1 -1.466 -18.899 6.25329 -4.21106
416 1 -1.09637 -16.4588 3.31003 -4.67407
417 1 1.24668 -20.0653 -0.413412 -4.02912
418 1 0.0357595 -17.6563 4.99138 -4.57325
419 1 2.6256 -17.8285 1.87742 -4.43469
420 1 0.846727 -18.8114 3.0126 -3.715
421 1 1.30301 -16.0861 6.25674 -4.44554
422 1 4.20922 -18.6722 7.29465 -4.38924
423 1 3.88895 -16.3759 3.51046 -4.46686
424 1 5.26982 -17.4863 5.24057 -4.43908
425 1 7.57714 -17.7027 1.5501 -4.42887
426 1 7.15884 -17.8914 3.92444 -3.53094
427 1 5.97934 -15.7782 6.65979 -4.41109
428 1 8.07732 -15.9507 3.10744 -4.54522
429 1 12.6499 -14.5493 8.02692 -4.492
430 1 -16.9729 -9.75516 3.76805 -4.27328
431 1 -15.7606 -11.8318 3.69088 -4.19336
432 1 -13.0035 -14.466 2.93522 -4.04057
433 1 -12.4713 -12.5783 1.6457 -4.77193
434 1 -14.8409 -13.3653 2.08778 -4.21592
435 1 -14.2472 -11.4166 5.5115 -4.97839
436 1 -11.8612 -14.0165 5.48139 -4.29458
437 1 -11.4099 -11.563 3.47711 -4.371
438 1 -10.132 -15.6788 1.37123 -4.15877
439 1 -10.0068 -12.7386 4.92096 -4.55351
440 1 -7.78218 -15.1509 4.64955 -4.61921
441 1 -7.85029 -12.685 1.95284 -4.57605
442 1 -9.35966 -14.1812 3.15442 -4.39854
443 1 -8.99634 -11.3765 6.60848 -4.45186
444 1 -6.42347 -13.8096 6.11761 -4.52181
445 1 -6.5731 -11.2505 3.48159 -4.54085
446 1 -4.99845 -15.4643 2.10291 -4.53349
447 1 -5.02091 -12.424 4.82205 -4.53626
448 1 -2.38866 -15.0094 4.7184 -4.51651
449 1 -2.28991 -12.538 1.84561 -4.55819
450 1 -3.87789 -13.7679 3.24926 -4.56733
451 1 -3.93569 -11.1655 6.68212 -4.46642
452 1 -1.41324 -13.7854 6.45574 -4.52069
453 1 -1.41909 -11.1749 3.52437 -4.48166
454 1 0.36365 -15.1037 2.06115 -4.55765
455 1 -0.064916 -12.4446 5.06527 -4.55922
456 1 2.66471 -14.7933 4.87846 -4.55888
457 1 2.65724 -12.184 1.99106 -4.55917
458 1 1.34416 -13.4887 3.45202 -4.57379
459 1 0.915746 -10.9125 6.62964 -4.51197
460 1 3.62373 -13.4506 6.68431 -4.51636
461 1 3.77352 -11.0551 3.75094 -4.5329
462 1 5.07054 -14.8194 2.23516 -4.45561
463 1 5.01901 -12.1551 5.32981 -4.54314
464 1 7.71891 -14.863 5.26065 -4.41657
465 1 7.8168 -12.428 2.42256 -4.51509
466 1 6.33693 -13.4186 3.86942 -4.52285
467 1 6.31673 -11.1153 7.03171 -4.50836
468 1 9.00413 -13.5428 6.79446 -4.46514
469 1 9.04772 -11.1603 3.9098 -4.55034
470 1 10.446 -15.7122 3.18996 -3.59372
471 1 10.435 -12.4589 5.29929 -4.59666
472 1 13.1573 -14.2695 5.70635 -3.78476
473 1 12.9983 -12.5713 2.26835 -4.34655
474 1 11.8231 -13.8697 3.86687 -4.65811
475 1 11.7545 -11.1199 6.66687 -4.53484
476 1 13.1866 -12.3299 8.03765 -4.65793
477 1 14.1449 -10.9865 3.66026 -4.57628
478 1 14.6803 -12.4761 5.29677 -3.61868
479 1 15.4463 -12.0746 7.61781 -4.49441
480 1 -17.4253 -7.89735 2.20843 -4.48018
481 1 -18.7071 -4.62637 8.16259 -4.30249
482 1 -16.7287 -8.85698 6.04428 -4.26776
483 1 -16.1037 -6.43341 3.74438 -4.66641
484 1 -14.9219 -10.0513 2.39141 -4.54241
485 1 -14.7903 -7.61965 5.36711 -4.60322
486 1 -12.4009 -9.9771 4.98324 -4.36803
487 1 -12.1994 -7.56801 2.04209 -4.47915
488 1 -13.6367 -8.63206 3.59299 -4.59129
489 1 -13.6832 -6.34635 7.07952 -4.51151
490 1 -11.6074 -8.97658 6.91426 -4.2533
491 1 -11.4098 -6.10522 3.75544 -4.45832
492 1 -9.90446 -10.1401 2.15856 -4.5131
493 1 -10.3295 -7.71563 5.24263 -4.49982
494 1 -7.65455 -10.0894 5.16197 -4.52278
495 1 -7.69019 -7.31829 2.22466 -4.4365
496 1 -8.8514 -8.61668 3.71542 -4.49109
497 1 -8.97664 -6.35036 6.7162 -4.49644
498 1 -6.46891 -8.94067 6.90135 -4.52783
499 1 -6.37363 -6.19943 3.6666 -4.52428
500 1 -5.20895 -10.0001 2.05273 -4.52238
501 1 -5.20819 -7.5624 5.37277 -4.48706
502 1 -2.6612 -9.87834 5.30145 -4.46385
503 1 -2.71463 -7.58069 2.16928 -4.46288
504 1 -4.01195 -8.75269 3.65609 -4.50286
505 1 -4.01663 -6.15285 6.7787 -4.5664
506 1 -1.44943 -8.52373 6.87807 -4.52551
507 1 -1.54145 -6.10633 3.67854 -4.53577
508 1 -0.0607695 -9.85743 2.0066 -4.54814
509 1 -0.217598 -7.26767 5.27496 -4.46194
510 1 2.44068 -9.62024 5.20922 -4.5483
511 1 2.69634 -7.32587 2.02382 -4.5204
512 1 1.13594 -8.45476 3.59023 -4.48422
513 1 1.26084 -6.33645 6.93144 -4.54043
514 1 3.94524 -8.5967 6.75117 -4.49029
515 1 3.66492 -5.92915 3.76358 -4.46166
516 1 5.25518 -9.7151 2.48344 -4.53834
517 1 5.06302 -7.08169 5.35478 -4.54235
518 1 7.48632 -9.98452 5.35986 -4.52673
519 1 7.67785 -7.25388 2.37174 -4.54394
520 1 6.4723 -8.4337 3.94596 -4.55299
521 1 6.38745 -6.08121 7.0292 -4.51656
522 1 8.82815 -8.80418 6.85854 -4.60529
523 1 8.93729 -6.0257 3.96235 -4.57139
524 1 10.0851 -9.81548 2.39103 -4.53677
525 1 10.1619 -7.36078 5.53466 -4.55079
526 1 12.8951 -9.58147 5.20543 -4.53657
527 1 12.8065 -7.09587 2.64594 -4.41801
528 1 11.4137 -8.47132 3.93375 -4.55738
529 1 11.4578 -6.30372 7.22217 -4.60747
530 1 14.159 -8.42189 6.90505 -4.49634
531 1 13.7452 -5.91911 4.29644 -4.34626
532 1 15.38 -9.74071 2.0358 -4.3085
533 1 15.4245 -7.02583 5.60916 -4.61205
534 1 16.4434 -5.68272 2.42458 -4.44503
535 1 16.2268 -7.96335 3.45467 -3.47929
536 1 16.6912 -6.03901 7.37105 -3.98249
537 1 18.0924 -4.27948 3.32308 -4.45123
538 1 -17.5505 -5.15815 4.93342 -4.60014
539 1 -17.0047 -2.89919 1.72648 -4.29047
540 1 -18.5598 -4.10051 2.94318 -4.33503
541 1 -18.8666 -2.12924 4.20446 -3.92869
542 1 -16.0772 -3.9174 6.3012 -4.53271
543 1 -16.7314 -1.13778 3.43699 -5.3491
544 1 -14.8645 -5.18746 2.23031 -4.40733
545 1 -15.201 -2.30945 4.99937 -4.28903
546 1 -12.7988 -4.93789 5.37218 -4.4484
547 1 -12.8028 -2.20987 2.15162 -4.46937
548 1 -13.7864 -3.60302 3.6849 -4.49043
549 1 -13.8773 -1.27659 6.67563 -4.48583
550 1 -11.4075 -3.7037 6.68344 -4.5799
551 1 -11.5254 -0.956103 3.66246 -4.51586
552 1 -10.1675 -4.87629 2.06497 -4.51787
553 1 -10.2995 -2.19535 5.24706 -4.52928
554 1 -7.84313 -4.94158 5.08897 -4.55005
555 1 -7.61758 -2.44352 2.13041 -4.50961
556 1 -9.09186 -3.46492 3.68734 -4.56746
557 1 -8.79619 -1.13885 6.74743 -4.54923
558 1 -6.32495 -3.64521 6.58508 -4.48341
559 1 -6.41494 -1.09497 3.65255 -4.53071
560 1 -5.06537 -4.99816 2.06187 -4.52964
561 1 -5.05526 -2.24971 5.11107 -4.52712
562 1 -2.71265 -4.79936 5.28531 -4.48395
563 1 -2.46968 -2.47256 1.94658 -4.45463
564 1 -3.83219 -3.67536 3.5477 -4.5124
565 1 -3.7686 -1.02075 6.75608 -4.45663
566 1 -1.26635 -3.6873 6.90492 -4.5409
567 1 -1.29423 -1.07194 3.7727 -4.47342
568 1 -0.0462033 -4.94466 2.21311 -4.49388
569 1 -0.115025 -2.33153 5.40305 -4.54168
570 1 2.46976 -4.91411 5.4577 -4.42197
571 1 2.63144 -2.43419 2.23471 -4.5192
572 1 1.15145 -3.54081 3.74711 -4.45161
573 1 1.36082 -1.08117 6.81595 -4.53528
574 1 3.60745 -3.81318 7.25456 -4.52441
575 1 3.91634 -1.17061 3.8195 -4.5089
576 1 5.00085 -4.64971 2.33935 -4.48237
577 1 4.79656 -2.51915 5.60073 -4.47817
578 1 7.5693 -4.77659 5.45321 -4.50193
579 1 7.59452 -2.0331 2.5006 -4.45433
580 1 6.30633 -3.36501 3.99154 -4.53443
581 1 6.19885 -1.19354 6.88541 -4.54798
582 1 8.94774 -3.52601 7.18073 -4.51654
583 1 8.90944 -0.968304 4.09343 -4.53949
584 1 10.1979 -4.67367 2.428 -4.5375
585 1 10.1419 -2.16868 5.70403 -4.5654
586 1 12.6382 -4.72469 5.93418 -4.56636
587 1 12.825 -2.52479 2.89009 -4.33029
588 1 11.3256 -3.63391 4.27888 -4.5668
589 1 11.4346 -0.884547 7.2459 -4.55745
590 1 13.8783 -3.359 7.40119 -4.54784
591 1 13.8714 -0.981852 4.36743 -4.56002
592 1 14.6693 -4.13566 2.89872 -5.00143
593 1 15.1894 -1.95454 6.0601 -4.49624
594 1 17.6146 -4.50935 5.68861 -3.50079
595 1 18.3944 -2.473 1.70673 -4.44174
596 1 16.3438 -3.05034 4.19729 -4.39755
597 1 16.7202 -0.448917 6.83948 -4.30089
598 1 18.7076 -1.16045 7.71537 -4.37068
599 1 19.1227 -0.470198 2.81424 -4.32681
600 1 -18.8899 -0.354267 2.5427 -4.00562
601 1 -17.2543 0.299008 5.34555 -4.45592
602 1 -17.3129 2.546 2.59916 -4.67274
603 1 -18.7318 1.50005 4.11616 -4.4913
604 1 -18.0881 3.4221 5.60801 -4.44768
605 1 -16.0589 1.43877 6.93348 -4.59431
606 1 -16.3473 4.00271 4.10927 -4.54185
607 1 -15.3597 0.133266 1.91971 -4.34494
608 1 -14.9211 2.63565 5.2898 -4.50824
609 1 -12.6899 0.316128 5.32844 -4.51377
610 1 -12.6888 2.70186 2.00056 -4.52973
611 1 -13.9217 1.33049 3.53951 -4.43565
612 1 -13.4974 3.94331 6.60975 -4.53984
613 1 -11.3024 1.51658 6.8237 -4.49374
614 1 -11.6306 4.14544 3.43188 -4.41637
615 1 -10.0358 0.0941048 2.11406 -4.55137
616 1 -10.2657 2.84434 4.99585 -4.46179
617 1 -7.56855 0.316043 5.25215 -4.51929
618 1 -7.5286 2.74278 1.88635 -4.52126
619 1 -8.77568 1.50528 3.611 -4.53514
620 1 -8.73747 3.76858 6.61861 -4.50608
621 1 -6.2488 1.52869 6.73889 -4.48151
622 1 -6.36323 3.97673 3.53964 -4.56761
623 1 -5.01296 0.0498209 2.00782 -4.52384
624 1 -5.10598 2.74468 5.05863 -4.46456
625 1 -2.59868 0.346649 5.11329 -4.53856
626 1 -2.53999 2.64864 1.85665 -4.58018
627 1 -3.88186 1.51888 3.39563 -4.49298
628 1 -3.66824 3.94112 6.60638 -4.48026
629 1 -1.12339 1.35961 6.66683 -4.46475
630 1 -1.09658 3.84412 3.40957 -4.52903
631 1 -0.023897 0.219846 2.25355 -4.54578
632 1 0.123604 2.69196 5.12221 -4.53892
633 1 2.66363 0.159613 5.30651 -4.53482
634 1 2.52758 2.98016 2.15488 -4.5136
635 1 1.4882 1.41761 3.63109 -4.57586
636 1 1.27218 3.97034 6.7072 -4.5442
637 1 3.97931 1.40746 6.87025 -4.53243
638 1 3.8462 4.14476 3.84576 -4.52587
639 1 4.92757 0.35374 2.29823 -4.47643
640 1 5.07438 2.81458 5.40708 -4.53003
641 1 7.38615 0.246711 5.39985 -4.52938
642 1 7.6273 2.84072 2.10971 -4.56804
643 1 6.2286 1.62037 3.66485 -4.49265
644 1 6.32704 4.18694 6.78397 -4.56127
645 1 8.80082 1.40624 6.90434 -4.54017
646 1 8.94661 3.92765 3.79774 -4.43968
647 1 10.2815 0.16235 2.53351 -4.53999
648 1 10.1244 2.78249 5.42306 -4.5121
649 1 12.7116 0.463401 5.82033 -4.52285
650 1 12.6327 3.0601 2.42081 -4.47404
651 1 11.6081 1.56482 4.03451 -4.53721
652 1 11.3931 3.93599 7.15752 -4.56226
653 1 14.1323 1.59325 7.34908 -4.48041
654 1 13.9584 4.21228 4.16982 -4.45544
655 1 15.0721 -0.141197 2.5413 -4.50172
656 1 15.1111 2.47398 5.40158 -4.46591
657 1 17.8973 0.207273 4.71861 -4.53958
658 1 17.5563 2.04938 1.61993 -4.49435
659 1 16.3622 1.44629 3.56509 -4.59709
660 1 16.5895 3.77546 6.63667 -4.41723
661 1 19.3885 1.75448 5.41407 -4.39123
662 1 18.9049 3.39644 2.77559 -4.5227
663 1 20.2899 1.55588 3.15373 -4.22964
664 1 -18.6641 5.65126 5.77776 -4.42664
665 1 -16.8272 7.87127 2.15541 -4.29318
666 1 -17.6857 5.8451 3.45964 -4.33123
667 1 -16.3655 6.29719 6.32914 -4.48361
668 1 -15.9908 9.31082 3.8413 -4.30164
669 1 -15.7972 5.01598 1.08269 -4.53581
670 1 -14.7577 7.42497 4.77978 -4.7512
671 1 -12.9376 5.54527 4.91745 -4.26038
672 1 -12.9592 7.87159 1.36584 -4.56268
673 1 -14.7038 6.61574 2.45268 -4.4034
674 1 -13.7926 8.82463 6.36807 -4.45813
675 1 -11.1494 6.23716 6.31716 -4.49517
676 1 -11.4391 8.69404 3.08881 -4.41337
677 1 -10.2244 5.31792 1.76105 -4.52324
678 1 -9.93937 7.80056 4.76078 -4.44018
679 1 -7.7517 5.28156 4.93113 -4.41761
680 1 -7.53304 7.88565 1.69897 -4.55216
681 1 -8.70056 6.40859 3.15671 -4.47809
682 1 -8.72391 8.98526 6.43301 -4.5137
683 1 -6.34302 6.34036 6.5889 -4.55259
684 1 -6.1439 8.97119 3.25323 -4.48492
685 1 -5.12926 5.28586 1.97206 -4.52377
686 1 -5.03394 7.67605 5.11918 -4.48749
687 1 -2.47408 5.10677 4.94524 -4.49419
688 1 -2.59507 7.97779 2.04213 -4.51036
689 1 -3.777 6.48269 3.5665 -4.55696
690 1 -3.66134 9.02991 6.60004 -4.51189
691 1 -1.39018 6.37575 6.72191 -4.54507
692 1 -1.20281 9.04272 3.56709 -4.53527
693 1 -0.0781112 5.36264 1.94575 -4.53902
694 1 -0.0240356 7.83197 5.31463 -4.46503
695 1 2.53833 5.39342 5.3365 -4.56914
696 1 2.56247 7.82987 2.28563 -4.58237
697 1 1.17224 6.46494 3.68192 -4.50815
698 1 1.11367 9.06973 7.07382 -4.50866
699 1 3.75029 6.80284 6.70778 -4.50125
700 1 3.9488 9.03506 3.8046 -4.47009
701 1 5.10513 5.6291 2.30697 -4.45125
702 1 5.36029 8.07911 5.50211 -4.49775
703 1 7.74054 5.33356 5.34097 -4.56997
704 1 7.84765 7.95833 2.17623 -4.35436
705 1 6.54057 6.78792 3.91088 -4.48549
706 1 6.55729 9.19141 7.14001 -4.45367
707 1 9.08433 6.68332 6.80966 -4.43827
708 1 8.91598 9.03146 4.07514 -4.55947
709 1 9.86411 5.37232 2.09117 -4.40321
710 1 10.4955 8.01292 5.44736 -4.36563
711 1 12.5901 5.45072 5.69367 -4.47933
712 1 12.7487 7.63456 2.55909 -4.49852
713 1 11.1833 6.30549 3.96213 -4.4832
714 1 11.8938 9.17409 8.17493 -4.32748
715 1 13.9757 6.57018 7.2701 -4.37982
716 1 13.888 8.29448 4.5433 -4.26703
717 1 15.267 5.01884 2.25928 -4.35569
718 1 15.6575 8.06621 6.32521 -4.69432
719 1 18.2358 3.89505 4.93498 -4.31687
720 1 18.3377 7.04754 2.30418 -4.20742
721 1 16.4498 6.56716 3.54044 -4.47349
722 1 17.1501 9.42071 7.54291 -4.00518
723 1 18.4237 6.28106 4.79076 -4.18946
724 1 -15.6611 11.1628 5.28535 -3.63658
725 1 -15.0861 10.5376 1.97693 -4.50838
726 1 -14.8499 12.9806 4.09954 -4.55527
727 1 -12.3249 9.92052 4.98556 -4.46876
728 1 -11.8565 12.7897 2.30603 -4.07718
729 1 -13.2952 11.3275 3.38037 -4.72194
730 1 -13.1455 14.1613 5.27794 -4.08775
731 1 -10.8771 11.4449 6.21071 -4.567
732 1 -11.0979 14.3566 4.00324 -5.35118
733 1 -9.90739 10.0536 1.77004 -4.52604
734 1 -9.54889 12.8996 4.94025 -4.28839
735 1 -7.36255 10.2925 4.85271 -4.54609
736 1 -7.61797 12.6985 1.70919 -4.56289
737 1 -8.77939 11.3964 3.28151 -4.49363
738 1 -8.29464 14.1831 6.444 -4.59751
739 1 -5.92163 11.5356 6.23974 -4.43531
740 1 -6.35643 14.2671 3.03628 -4.61645
741 1 -4.95696 10.447 1.78623 -4.5507