ITEM: TIMESTEP
340000
ITEM: NUMBER OF ATOMS
4050
ITEM: BOX BOUNDS ss ss pp
-2.0352980019675147e+01 2.0507198547084069e+01
-2.0109324775867659e+01 2.0311013124138839e+01
-4.6163500000000006e+00 5.8926349999999999e+01
ITEM: ATOMS id type x y z c_peratom
1 1 -11.5649 -14.8664 -2.60042 -3.67842
2 1 -7.10033 -17.4148 -4.30677 -4.20683
3 1 -8.80419 -16.7372 -0.719163 -4.54789
4 1 -6.96364 -18.1563 -1.04874 -3.75219
5 1 -5.79077 -15.8764 -3.20986 -4.64497
6 1 -4.80046 -17.6938 -1.99707 -4.56038
7 1 -2.44625 -17.7881 58.4051 -4.58314
8 1 -4.48869 -18.5041 -4.26899 -4.04776
9 1 -3.72019 -16.5172 -0.191036 -4.42743
10 1 -0.683106 -18.6846 0.0063315 -4.22621
11 1 -1.56957 -16.3385 -3.45565 -4.53455
12 1 0.435768 -19.0883 -3.31739 -4.11162
13 1 -0.0999953 -17.331 -1.87538 -4.55782
14 1 3.02157 -17.5427 -4.35347 -4.60175
15 1 2.63837 -19.5061 -3.13604 -4.34944
16 1 1.2241 -16.0226 -0.338249 -4.57473
17 1 3.04791 -19.0512 -0.778389 -4.23711
18 1 3.88361 -16.0918 -2.7709 -4.56887
19 1 4.98871 -17.832 -1.7689 -4.40635
20 1 6.46637 -17.9634 -3.64849 -4.2534
21 1 9.07357 -16.5704 -0.780928 -4.23004
22 1 5.77602 -16.2049 -0.151427 -4.49212
23 1 8.28494 -16.3756 -2.91571 -4.19437
24 1 10.266 -14.811 0.116336 -4.63617
25 1 -14.4176 -12.3464 -2.63924 -3.94829
26 1 -14.8559 -13.4854 -0.597534 -4.30774
27 1 -13.1842 -15.1729 -0.959826 -4.42049
28 1 -12.253 -12.8521 58.4327 -4.59964
29 1 -13.4537 -14.1359 -3.62569 -4.26837
30 1 -13.9806 -11.2216 -0.702977 -4.33085
31 1 -11.2264 -13.6695 -0.615666 -5.22808
32 1 -11.0211 -11.4893 -3.55546 -4.54465
33 1 -9.74135 -15.2833 58.6709 -3.96636
34 1 -9.56714 -12.5416 -1.98066 -4.26596
35 1 -7.40561 -15.1916 -1.69136 -4.55128
36 1 -7.1158 -12.2973 -4.56466 -4.50529
37 1 -8.43438 -13.9454 -3.47948 -4.59852
38 1 -8.62569 -11.5366 -0.0140472 -4.4521
39 1 -6.35892 -13.797 0.0101007 -4.48188
40 1 -5.879 -11.0206 -2.92429 -4.48181
41 1 -4.62796 -14.8318 58.6202 -4.3886
42 1 -4.88046 -12.4699 -1.42453 -4.50807
43 1 -2.45889 -15.1185 -1.65899 -4.48086
44 1 -2.34543 -12.3545 58.9165 -4.48191
45 1 -3.59889 -13.6685 -3.05719 -4.50772
46 1 -3.55819 -11.2287 -0.0296489 -4.55879
47 1 -1.1647 -13.6544 -0.193158 -4.49299
48 1 -1.19222 -10.9933 -3.0625 -4.58122
49 1 0.162603 -15.1801 -4.69035 -4.60145
50 1 0.100904 -12.2329 -1.57359 -4.47946
51 1 2.48487 -14.547 -1.72615 -4.54256
52 1 2.79035 -12.6377 58.8935 -4.51448
53 1 1.04696 -13.5317 -3.25696 -4.48278
54 1 1.21084 -10.969 0.105907 -4.49677
55 1 3.65122 -13.4229 -0.0145907 -4.42603
56 1 3.65118 -11.0793 -3.24761 -4.43055
57 1 4.87327 -14.9905 -4.58188 -4.6313
58 1 4.86478 -12.2232 -1.6397 -4.45062
59 1 7.23624 -14.826 -1.45454 -4.9642
60 1 7.60885 -12.424 58.7952 -4.39337
61 1 6.13073 -13.5708 -3.22871 -4.39975
62 1 6.03288 -11.026 0.167804 -4.47239
63 1 8.43877 -13.3754 -0.0531955 -4.4676
64 1 8.01365 -11.101 -2.75445 -4.45428
65 1 9.78232 -15.2443 -4.44723 -4.22501
66 1 9.63881 -11.8657 -1.26998 -4.33958
67 1 11.8993 -14.2439 -1.47597 -4.27061
68 1 11.4285 -11.6707 -4.31609 -4.36861
69 1 10.351 -13.3431 -3.08608 -4.92935
70 1 11.0286 -10.9599 0.533988 -4.53708
71 1 13.6564 -12.8035 -0.628257 -4.06129
72 1 13.5275 -10.8504 -1.98374 -4.88012
73 1 15.436 -12.2022 -2.38669 -3.97778
74 1 15.7613 -10.1649 -1.10785 -4.15679
75 1 -17.4087 -7.55755 57.9487 -4.14829
76 1 -18.4952 -5.75752 1.01053 -4.00651
77 1 -16.1843 -8.77796 0.125415 -3.62526
78 1 -16.5942 -6.51703 -3.27058 -4.26697
79 1 -14.961 -10.2568 -4.61547 -3.89266
80 1 -15.0926 -7.49691 -1.59308 -4.51505
81 1 -12.26 -10.177 -1.97837 -4.52284
82 1 -12.4178 -7.41711 58.9513 -4.5137
83 1 -13.6881 -8.6769 -3.152 -4.62273
84 1 -13.6054 -6.55514 0.0161665 -4.4707
85 1 -11.2717 -8.81859 -0.189182 -4.43674
86 1 -11.2435 -5.95141 -3.08378 -4.52551
87 1 -9.59047 -10.0178 58.8525 -4.59347
88 1 -10.0306 -7.31769 -1.48386 -4.50127
89 1 -7.31652 -10.0429 -1.39413 -4.56176
90 1 -7.34581 -7.5305 58.8581 -4.49801
91 1 -8.57062 -8.69167 -3.00744 -4.47802
92 1 -8.54047 -6.01401 0.123079 -4.42682
93 1 -6.17175 -8.68322 0.18219 -4.55399
94 1 -6.05968 -6.17377 -3.25157 -4.52556
95 1 -4.72697 -9.68386 58.9078 -4.40109
96 1 -5.14064 -7.26894 -1.38937 -4.44547
97 1 -2.36183 -9.74667 -1.46207 -4.55536
98 1 -2.20551 -7.42834 59.0494 -4.45387
99 1 -3.63379 -8.4049 -2.88964 -4.51926
100 1 -3.74061 -6.00285 0.26143 -4.49999
101 1 -1.20081 -8.43046 0.143648 -4.47059
102 1 -1.02595 -6.02658 -2.91547 -4.47371
103 1 0.218237 -9.75756 -4.52408 -4.55677
104 1 0.252586 -7.42452 -1.425 -4.51923
105 1 2.59237 -9.82839 -1.43203 -4.43906
106 1 2.8529 -7.02667 58.8683 -4.37554
107 1 1.62499 -8.50467 -3.05008 -4.46666
108 1 1.21953 -5.97904 0.207927 -4.52929
109 1 3.75582 -8.45266 0.172466 -4.51323
110 1 3.74439 -5.89965 -2.85074 -4.45842
111 1 5.01895 -9.8244 58.7986 -4.51719
112 1 5.0518 -7.18891 -1.31722 -4.43921
113 1 7.20592 -9.54051 -1.15563 -4.42426
114 1 7.63766 -7.51609 58.8879 -4.4926
115 1 6.14609 -8.4702 -3.09115 -4.3806
116 1 6.12061 -5.95627 0.445641 -4.47477
117 1 8.72273 -8.4381 0.421533 -4.47998
118 1 8.34085 -6.02029 -2.91686 -4.40066
119 1 9.76933 -10.0388 -3.96658 -4.4823
120 1 9.68161 -7.0091 -1.22634 -4.53432
121 1 12.0992 -9.32888 -0.683729 -4.43237
122 1 11.9943 -7.36099 -4.5108 -4.45474
123 1 10.9558 -8.47235 -2.58763 -4.4762
124 1 11.1962 -5.86843 0.239366 -4.45881
125 1 13.8081 -8.10106 0.256164 -4.57255
126 1 13.4175 -6.16605 -3.11124 -4.62375
127 1 14.0486 -9.67718 -4.07492 -4.46577
128 1 14.8525 -7.058 -1.52877 -4.63563
129 1 16.3822 -6.53932 -4.48051 -4.40368
130 1 15.8992 -8.61103 -2.90631 -4.39721
131 1 16.1385 -5.28053 -0.618691 -4.52514
132 1 18.3307 -5.25897 -4.55361 -3.9068
133 1 -17.7889 -5.23462 -1.75038 -3.88273
134 1 -17.3739 -2.4342 -4.39496 -4.99412
135 1 -18.6128 -3.18496 -2.44456 -4.26991
136 1 -17.5555 -2.07437 -0.702181 -4.65544
137 1 -16.4653 -4.97993 0.191233 -4.5349
138 1 -16.204 -0.699258 -3.35028 -4.53723
139 1 -14.9745 -5.09682 -4.50903 -4.57503
140 1 -15.3836 -1.89464 -1.59033 -4.45235
141 1 -12.6732 -4.86295 -1.41183 -4.53136
142 1 -12.6854 -2.45294 58.8576 -4.37619
143 1 -13.9811 -3.48868 -2.90318 -4.39675
144 1 -13.7819 -0.938635 0.0362048 -4.44339
145 1 -11.3217 -3.65508 0.119563 -4.58535
146 1 -11.2395 -1.23058 -3.21804 -4.45616
147 1 -9.91097 -4.89945 58.751 -4.49648
148 1 -9.99298 -2.32852 -1.40053 -4.40849
149 1 -7.38429 -4.89547 -1.74586 -4.47225
150 1 -7.4245 -2.39051 58.8121 -4.49896
151 1 -8.72516 -3.55644 -3.22442 -4.48818
152 1 -8.65592 -1.04118 0.0944302 -4.4838
153 1 -6.35672 -3.36553 -0.123052 -4.39197
154 1 -6.12262 -1.07548 -3.26406 -4.51952
155 1 -4.6808 -4.82999 58.9046 -4.45863
156 1 -4.91316 -2.38812 -1.63913 -4.4936
157 1 -2.28916 -4.86173 -1.34552 -4.49248
158 1 -2.33215 -2.355 58.8745 -4.49646
159 1 -3.38699 -3.69728 -3.05855 -4.46727
160 1 -3.76881 -1.12319 0.0447655 -4.4816
161 1 -1.04279 -3.45688 0.0611426 -4.52913
162 1 -1.0777 -1.0325 -3.09789 -4.55939
163 1 -0.00315647 -4.82981 58.7608 -4.40069
164 1 0.281308 -2.19806 -1.56077 -4.49897
165 1 2.5083 -4.66612 -1.33104 -4.43207
166 1 2.62782 -2.26567 -4.53185 -4.48426
167 1 1.31529 -3.68041 -3.02626 -4.43337
168 1 1.34721 -0.939631 0.0586105 -4.50672
169 1 3.77614 -3.53719 0.39547 -4.49402
170 1 3.75259 -0.911399 -2.89477 -4.47986
171 1 5.1138 -4.70836 -4.42601 -4.48515
172 1 4.98657 -2.0498 -1.17708 -4.50724
173 1 7.42615 -4.74093 -1.22259 -4.37919
174 1 7.30642 -1.95711 -4.28274 -4.48058
175 1 6.19176 -3.42344 -2.75386 -4.51926
176 1 6.27627 -0.765473 0.402946 -4.43171
177 1 8.48918 -3.46384 0.584684 -4.499
178 1 8.86452 -0.964987 -2.68217 -4.42114
179 1 9.66847 -4.68625 -4.3565 -4.50965
180 1 9.94984 -2.24792 -0.887886 -4.43323
181 1 12.3832 -4.85693 -1.52994 -4.51085
182 1 12.1639 -2.36625 -4.32352 -4.33123
183 1 10.8467 -3.49221 -2.75523 -4.48001
184 1 11.3985 -0.97932 0.647733 -4.45303
185 1 14.2596 -4.02605 -0.169386 -4.4265
186 1 13.2911 -1.30783 -2.39415 -4.41472
187 1 14.7746 -4.84157 -4.59157 -4.53985
188 1 15.2343 -2.23473 -1.40783 -4.57726
189 1 17.7492 -4.48519 -2.25782 -4.59643
190 1 17.6409 -1.90508 -4.61081 -4.59934
191 1 16.1315 -3.24318 -3.41622 -4.6923
192 1 16.3112 -1.20239 0.414456 -4.44811
193 1 18.8438 -2.65148 -1.32921 -3.71573
194 1 18.8148 -0.744095 -2.79605 -4.01019
195 1 -19.4168 -1.26251 -3.79166 -4.34425
196 1 -18.1609 0.173394 -0.41139 -4.3354
197 1 -17.6 2.42857 -4.22143 -4.32868
198 1 -18.075 0.4585 -2.77683 -4.43394
199 1 -17.8653 4.37708 0.982057 -4.08486
200 1 -16.3246 1.41606 0.356988 -4.47986
201 1 -16.3255 3.71118 -2.73944 -4.45756
202 1 -14.9172 0.028956 58.4573 -4.50788
203 1 -15.0613 1.99127 -1.65763 -4.46028
204 1 -12.4031 0.0117256 -1.63053 -4.45288
205 1 -12.7343 2.57613 58.5705 -4.54727
206 1 -13.624 1.17523 -3.33614 -4.37047
207 1 -13.8122 3.62522 -0.426655 -4.50425
208 1 -11.0524 1.31152 -0.0361851 -4.46613
209 1 -11.312 3.83129 -3.4401 -4.54412
210 1 -10.0823 0.0461074 58.7407 -4.47669
211 1 -10.15 2.64829 -1.78026 -4.46385
212 1 -7.54081 0.308194 -1.69028 -4.38987
213 1 -7.74856 2.70598 58.6672 -4.4434
214 1 -8.83624 1.43712 -3.35514 -4.52085
215 1 -8.81043 3.80766 -0.117761 -4.4865
216 1 -6.28904 1.42996 0.00411411 -4.49116
217 1 -6.35157 3.95384 -3.23508 -4.49301
218 1 -4.97437 0.362574 -4.64148 -4.5338
219 1 -5.0972 2.87157 -1.53382 -4.49466
220 1 -2.61539 0.127333 -1.63151 -4.52345
221 1 -2.49125 2.65482 58.8515 -4.51093
222 1 -3.70577 1.64057 -3.04256 -4.52576
223 1 -3.76405 4.00561 -0.00393876 -4.43636
224 1 -1.40436 1.42909 -0.0679161 -4.50203
225 1 -1.27371 4.02179 -3.15502 -4.58083
226 1 0.228731 0.267902 -4.65224 -4.52797
227 1 0.0345134 2.93633 -1.49357 -4.4865
228 1 2.48928 0.60937 -1.30051 -4.47183
229 1 2.79152 2.81905 -4.45314 -4.50704
230 1 1.3449 1.67561 -3.02327 -4.49938
231 1 1.27311 4.08679 0.121359 -4.47156
232 1 3.88512 1.53957 0.391331 -4.4842
233 1 3.94501 4.33272 -2.85082 -4.47157
234 1 5.18046 0.552826 -4.21454 -4.483
235 1 4.97628 2.96842 -1.19259 -4.51491
236 1 7.58615 0.331316 -1.18856 -4.50722
237 1 7.89641 3.19622 -4.30106 -4.47031
238 1 6.51185 1.86746 -2.71963 -4.52737
239 1 6.46461 4.0756 0.431933 -4.46698
240 1 8.75386 1.6054 0.53856 -4.43387
241 1 9.00045 4.42905 -2.58192 -4.56541
242 1 10.1083 0.245412 -4.44643 -4.41662
243 1 10.0856 2.75459 -1.16425 -4.46314
244 1 12.5946 0.372458 -0.901521 -4.48739
245 1 12.4506 2.94043 -3.80913 -4.44018
246 1 11.3068 1.28501 -2.68366 -4.45288
247 1 11.0314 4.02952 0.624691 -4.40848
248 1 13.7329 1.8899 0.504842 -4.46772
249 1 14.0926 4.4077 -2.67956 -4.90355
250 1 14.3483 -0.0733994 -4.16958 -4.48278
251 1 15.0742 2.68867 -1.23577 -4.21838
252 1 17.5737 0.13312 -1.05152 -4.53684
253 1 16.9317 2.17405 -4.08706 -4.45774
254 1 15.7628 0.861386 -2.4911 -4.42539
255 1 16.3453 4.08332 0.361728 -4.93541
256 1 19.0987 1.21466 0.58016 -4.314
257 1 18.6919 3.66241 -4.17137 -3.98938
258 1 18.9554 1.32841 58.6756 -3.90576
259 1 -17.9438 5.14515 -1.8352 -3.93371
260 1 -17.318 8.15121 58.0728 -4.35424
261 1 -17.6944 6.41203 -3.86258 -4.2309
262 1 -16.7717 6.84408 -0.599245 -4.48064
263 1 -16.2734 9.41422 -3.8042 -3.6308
264 1 -15.546 5.0987 -4.642 -5.30853
265 1 -15.3413 8.05555 -2.15696 -4.57424
266 1 -12.7628 5.05954 -1.90403 -4.50118
267 1 -12.6362 7.75374 58.6098 -4.54545
268 1 -13.9972 6.53643 -3.48495 -4.31956
269 1 -13.9004 9.08272 -0.432141 -4.48901
270 1 -11.3839 6.34194 -0.274169 -4.54745
271 1 -11.3731 8.95338 -3.33424 -4.50715
272 1 -9.93496 5.17834 58.7114 -4.47689
273 1 -10.0944 7.72286 -1.70558 -4.53812
274 1 -7.60886 5.10427 -1.62656 -4.52569
275 1 -7.73596 7.5544 58.6007 -4.45149
276 1 -8.80197 6.41726 -3.16424 -4.47448
277 1 -8.69112 8.72387 -0.219917 -4.48297
278 1 -6.11391 6.196 -0.0243307 -4.50452
279 1 -6.36291 8.72331 -3.26931 -4.53179
280 1 -5.25848 5.35503 58.735 -4.49327
281 1 -5.0052 7.61897 -1.62569 -4.45657
282 1 -2.60804 5.29748 -1.66171 -4.47393
283 1 -2.35563 7.5944 -4.69384 -4.48955
284 1 -3.78907 6.42106 -3.29435 -4.50425
285 1 -3.82122 8.67896 0.11242 -4.48381
286 1 -1.15882 6.37971 -0.0157875 -4.35323
287 1 -1.17267 8.89919 -2.98738 -4.47599
288 1 0.170119 5.23714 -4.64152 -4.49866
289 1 0.228546 7.74087 -1.42539 -4.56256
290 1 2.65838 5.52684 -1.11971 -4.47485
291 1 2.84188 7.9343 -4.36581 -4.45865
292 1 1.54768 6.54359 -3.01116 -4.48255
293 1 1.36351 9.05572 0.220192 -4.45935
294 1 3.87104 6.75939 0.514853 -4.50634
295 1 4.1551 9.15272 -2.66114 -4.39391
296 1 5.36325 5.64081 -4.21284 -4.38466
297 1 5.24085 8.05538 -0.92372 -4.58339
298 1 7.78463 5.5523 -0.86369 -4.58149
299 1 8.91232 8.69133 58.1486 -4.37172
300 1 6.67112 6.81392 -2.44519 -4.52513
301 1 6.59185 9.33508 0.431478 -4.42257
302 1 9.08411 6.97579 0.570273 -4.34785
303 1 8.38407 8.4561 -2.94544 -4.4378
304 1 10.2769 5.82612 -4.02821 -3.98296
305 1 10.0793 7.76269 -1.50581 -4.35862
306 1 12.4917 5.1739 -0.887893 -4.31304
307 1 12.7355 8.00794 57.9418 -4.55878
308 1 11.9951 6.90086 -2.53304 -4.4271
309 1 11.4992 9.17032 1.73295 -4.50569
310 1 13.476 6.27286 0.822062 -4.58774
311 1 12.7248 10.3844 58.7156 -4.12525
312 1 14.3525 5.16896 58.5391 -4.38441
313 1 14.9176 7.44575 -0.538719 -4.39829
314 1 17.747 4.5862 -1.56175 -3.70021
315 1 16.1451 6.634 58.7715 -4.44414
316 1 15.9502 5.98758 -2.36565 -4.31463
317 1 16.2278 8.33586 1.50248 -4.28295
318 1 18.5777 5.10866 0.624066 -4.22267
319 1 -15.5741 12.8058 1.02957 -4.13584
320 1 -14.597 10.8463 -4.61337 -4.62796
321 1 -14.861 13.479 -1.25115 -4.10455
322 1 -12.4393 10.3973 -1.74139 -4.59476
323 1 -12.5067 13.4009 58.9062 -4.95251
324 1 -13.5484 12.1448 -2.81439 -4.27423
325 1 -13.5657 14.1125 0.67821 -4.798
326 1 -10.9563 11.4701 -0.307896 -4.43788
327 1 -11.4709 14.6957 -2.93621 -4.16934
328 1 -10.2556 10.311 58.5792 -4.55475
329 1 -10.2183 12.8671 -2.11706 -4.48126
330 1 -7.60721 10.1622 -1.95725 -4.50496
331 1 -7.47578 12.5527 58.3617 -4.51673
332 1 -8.91772 11.5132 -3.49549 -4.51088
333 1 -8.86921 13.9413 -0.546858 -4.5159
334 1 -6.14253 11.3067 -0.428296 -4.5255
335 1 -6.16681 13.7556 -3.72683 -4.50682
336 1 -5.06718 9.97757 58.7919 -4.55715
337 1 -4.96026 12.7762 -1.91654 -4.48385
338 1 -2.83254 10.1061 -1.53369 -4.42042
339 1 -2.29925 12.7663 -4.7105 -4.57671
340 1 -3.63203 11.3922 -3.32873 -4.56169
341 1 -3.66147 13.7829 -0.246152 -4.35248
342 1 -1.47422 11.3951 0.0563549 -4.54226
343 1 -0.907348 13.8927 -3.13205 -4.55427
344 1 0.187675 10.0118 -4.44611 -4.53291
345 1 0.0984027 12.64 -1.37312 -4.4826
346 1 2.6645 10.2984 -1.31142 -4.56803
347 1 2.8492 12.6971 -4.59004 -4.504
348 1 1.47916 11.4877 -3.01778 -4.48778
349 1 1.22707 13.9156 0.389503 -4.52055
350 1 4.0932 11.5818 0.0892815 -4.43838
351 1 4.19792 13.8938 -3.04629 -4.44196
352 1 5.51278 10.0678 -4.43539 -4.40722
353 1 5.48076 12.7421 -1.44255 -4.00332
354 1 7.87779 10.2893 -1.48839 -4.34352
355 1 7.62655 12.3861 57.9356 -4.18849
356 1 6.67494 11.6082 -3.159 -4.27657
357 1 6.29115 14.3308 0.817906 -4.10422
358 1 8.94366 11.9728 1.53932 -4.57656
359 1 8.82564 14.1727 -4.50894 -4.50824
360 1 10.5562 10.2657 57.1995 -4.82416
361 1 9.08352 12.2558 -0.686626 -4.33067
362 1 11.5061 9.60741 -0.64445 -4.9688
363 1 12.0779 12.0761 57.1255 -4.22709
364 1 11.1892 11.6996 -1.70414 -4.2962
365 1 10.4317 13.6165 2.1521 -4.61403
366 1 13.1932 10.7341 2.13893 -4.61864
367 1 12.884 12.6575 -0.317486 -3.68421
368 1 14.5493 10.2715 57.3325 -3.91512
369 1 13.7612 10.6616 -0.118457 -4.20385
370 1 13.4419 8.74814 -1.90247 -4.10955
371 1 -13.3719 15.3514 -1.39512 -4.09775
372 1 -12.2662 16.0813 0.626579 -4.18497
373 1 -9.04115 15.3077 58.6526 -4.43331
374 1 -7.359 14.9921 -2.11877 -4.59108
375 1 -8.14783 17.4156 58.0966 -4.41442
376 1 -8.69292 16.7167 -2.97289 -4.40528
377 1 -5.94895 15.9896 -0.626512 -4.7421
378 1 -6.8017 17.8972 -3.45093 -3.58895
379 1 -5.0006 15.4353 58.5532 -4.59019
380 1 -5.04569 17.6463 -1.86343 -4.64035
381 1 -2.42672 15.1868 -1.77885 -4.52893
382 1 -2.35274 17.8358 58.609 -4.51614
383 1 -3.5991 16.5174 -3.40709 -4.47116
384 1 -4.74112 18.7886 0.245648 -3.94745
385 1 -1.41567 16.3579 0.0605669 -4.48684
386 1 -0.654495 18.4994 -3.37328 -3.66355
387 1 0.562733 15.1543 -4.57817 -4.42545
388 1 0.14443 17.5211 -1.31834 -4.63337
389 1 2.83191 14.8046 -1.12541 -4.33192
390 1 3.09777 17.6761 -3.45985 -4.3807
391 1 1.61496 16.0105 -2.64397 -4.59675
392 1 1.16782 18.9078 0.298586 -4.24845
393 1 3.37743 16.4061 0.617852 -4.39428
394 1 2.97279 18.8274 -1.40781 -3.84478
395 1 5.13513 15.004 58.4728 -3.55758
396 1 4.78435 17.9686 -0.225398 -4.57941
397 1 8.69628 17.3359 -3.75549 -4.34929
398 1 9.45143 17.9602 57.6187 -4.31257
399 1 7.13039 15.59 -3.9658 -4.58043
400 1 4.35734 19.3204 1.6239 -4.30606
401 1 7.45996 16.207 1.86156 -4.53598
402 1 9.40092 14.7769 56.8091 -4.57397
403 1 10.8597 13.8657 -0.224597 -4.32934
404 1 10.2454 16.0707 58.6462 -4.48109
405 1 1.56435 19.2166 -3.93437 -4.03498
406 1 -11.7521 -15.5451 0.920644 -4.15991
407 1 -7.28981 -17.299 1.09859 -3.59454
408 1 -8.90908 -16.1489 5.87784 -3.651
409 1 -6.0683 -18.3312 6.71802 -4.12391
410 1 -6.02662 -16.3858 2.98039 -4.47807
411 1 -4.89327 -17.5852 4.70828 -4.47108
412 1 -2.61998 -18.0936 1.30514 -4.05166
413 1 -2.87371 -18.3994 3.71716 -4.03189
414 1 -3.72633 -15.9772 5.87357 -4.47719
415 1 -1.37876 -18.8965 5.54664 -4.0769
416 1 -1.27087 -16.7893 2.88318 -5.31022
417 1 1.01965 -20.2052 -1.34697 -4.11783
418 1 0.319144 -17.8463 4.4623 -4.14606
419 1 2.3889 -17.5394 0.969482 -4.52552
420 1 0.515103 -18.4799 2.06547 -4.12813
421 1 0.851484 -15.9367 5.69517 -4.42933
422 1 4.19358 -18.3868 6.78016 -4.13247
423 1 3.57648 -16.4295 2.76497 -4.54609
424 1 4.86312 -17.6496 4.22262 -4.38743
425 1 7.45114 -17.3741 0.943537 -4.47355
426 1 7.01534 -17.8211 3.30438 -3.5449
427 1 5.4853 -15.8567 5.45046 -4.639
428 1 8.0852 -15.8409 2.61075 -4.53588
429 1 12.4348 -14.6517 7.49498 -4.29687
430 1 -16.9811 -9.49247 3.25044 -4.27198
431 1 -15.7779 -11.6043 3.21655 -4.13844
432 1 -12.6724 -13.9475 2.55142 -4.22052
433 1 -12.4448 -12.0235 1.03996 -4.6089
434 1 -14.6742 -13.208 1.84682 -4.08151
435 1 -14.4072 -11.2368 5.04337 -4.92645
436 1 -11.701 -13.4613 4.7813 -4.46325
437 1 -11.3315 -10.7345 2.77678 -4.39766
438 1 -9.51489 -14.8578 0.633913 -4.16552
439 1 -9.95854 -12.1226 4.15226 -4.55548
440 1 -7.51711 -15.0665 4.27513 -4.63833
441 1 -7.4244 -12.5825 1.69349 -4.55949
442 1 -9.0271 -13.8344 2.80763 -4.45699
443 1 -9.25423 -10.9976 6.22752 -4.39892
444 1 -6.50828 -13.6628 5.91509 -4.54024
445 1 -6.37752 -10.926 3.06072 -4.51531
446 1 -4.93614 -15.1135 1.38303 -4.55416
447 1 -5.15981 -12.2962 4.50608 -4.55581
448 1 -2.31823 -14.8799 4.23055 -4.27109
449 1 -2.27248 -12.447 1.51382 -4.53761
450 1 -3.79056 -13.5966 2.90452 -4.57087
451 1 -3.89557 -11.1728 6.30458 -4.45563
452 1 -1.45335 -13.4033 5.95917 -4.5418
453 1 -1.27722 -10.8735 3.06793 -4.50396
454 1 -0.116811 -15.1718 1.42954 -4.22698
455 1 0.0572771 -11.985 4.76187 -4.44014
456 1 2.29084 -15.0313 4.17433 -4.58814
457 1 2.39955 -12.4192 1.57721 -4.4907
458 1 0.894882 -13.5136 2.96698 -4.49981
459 1 1.4652 -11.3631 6.56295 -4.34983
460 1 3.94966 -14.2507 5.69164 -4.36688
461 1 3.48046 -11.0458 3.30283 -4.47706
462 1 4.84756 -14.7315 1.60061 -4.45496
463 1 4.89356 -12.1348 4.89439 -4.52924
464 1 7.37337 -14.8997 4.61388 -4.42073
465 1 7.27693 -12.3147 1.81245 -4.4133
466 1 6.00218 -13.4681 3.3273 -4.55964
467 1 6.36493 -11.0066 6.46747 -4.46437
468 1 8.75593 -13.7223 6.40466 -4.37405
469 1 8.6031 -11.2452 3.41841 -4.55577
470 1 10.4314 -15.4707 2.46456 -3.57857
471 1 9.99203 -12.5621 4.82144 -4.59059
472 1 12.8079 -13.9658 5.08536 -3.74928
473 1 12.6774 -12.2361 1.59618 -4.42991
474 1 11.4454 -13.559 3.22295 -4.64552
475 1 11.2006 -10.9141 6.00727 -4.4623
476 1 12.4533 -12.2345 7.53633 -4.68179
477 1 14.0969 -11.0239 3.01696 -4.45756
478 1 14.5407 -12.393 4.90579 -3.63429
479 1 14.79 -12.1941 7.27254 -4.56333
480 1 -17.4854 -7.7783 1.72485 -4.56633
481 1 -18.587 -4.69469 7.84187 -4.29914
482 1 -16.6371 -8.81335 5.58664 -4.34786
483 1 -16.199 -6.40322 3.1318 -4.6329
484 1 -15.1036 -9.7822 1.9558 -4.61524
485 1 -14.976 -7.18315 5.01934 -4.5255
486 1 -12.4542 -9.79384 4.7118 -4.27369
487 1 -12.2395 -7.68114 1.66491 -4.3454
488 1 -13.7996 -8.37323 3.34223 -4.59398
489 1 -13.5486 -6.16202 6.53234 -4.47635
490 1 -11.403 -8.62131 6.67419 -4.29424
491 1 -11.3068 -6.29553 3.40254 -4.44457
492 1 -9.67404 -9.88006 1.32673 -4.46947
493 1 -10.1865 -7.61313 4.99787 -4.43682
494 1 -7.55323 -9.89694 4.91343 -4.51787
495 1 -7.45338 -7.38627 1.68919 -4.50789
496 1 -8.78642 -8.58861 3.28909 -4.38621
497 1 -8.66705 -6.26979 6.31689 -4.5603
498 1 -6.13315 -8.66386 6.3752 -4.53732
499 1 -6.4237 -5.98703 3.26541 -4.52717
500 1 -4.74089 -9.84284 1.63729 -4.50822
501 1 -5.13487 -7.27292 4.82335 -4.47231
502 1 -2.4518 -9.75952 4.77623 -4.42733
503 1 -2.52403 -7.21758 1.82888 -4.47507
504 1 -3.67064 -8.47453 3.34782 -4.5025
505 1 -3.76741 -6.01241 6.51303 -4.5364
506 1 -1.26174 -8.70468 6.41303 -4.51493
507 1 -1.28286 -5.89964 3.42279 -4.52232
508 1 0.0960656 -9.50726 1.77387 -4.50083
509 1 -0.0716037 -7.2394 4.97838 -4.53068
510 1 2.47018 -9.78009 5.08326 -4.47515
511 1 2.53099 -7.14276 1.83302 -4.37923
512 1 1.27626 -8.42831 3.44545 -4.47394
513 1 1.24552 -6.12499 6.75009 -4.54433
514 1 3.72542 -8.46448 6.66042 -4.47418
515 1 3.73263 -5.89551 3.74403 -4.38383
516 1 4.86684 -9.74181 1.81723 -4.5372
517 1 4.93342 -7.21069 5.20897 -4.44368
518 1 7.44042 -9.70118 4.82393 -4.53728
519 1 7.52834 -7.11738 1.97794 -4.61338
520 1 5.99807 -8.37005 3.40149 -4.49277
521 1 6.03532 -5.99353 6.75175 -4.44078
522 1 8.56661 -8.6209 6.61513 -4.51407
523 1 8.93837 -5.96329 3.49487 -4.53283
524 1 9.75164 -9.71247 2.10189 -4.58369
525 1 9.9411 -7.46503 5.12415 -4.47434
526 1 12.635 -9.82297 4.46675 -4.54889
527 1 12.4955 -6.97687 1.81679 -4.43935
528 1 11.2231 -8.39566 3.3459 -4.57069
529 1 11.3505 -6.30064 6.77345 -4.56672
530 1 13.6435 -8.57292 6.15766 -4.45721
531 1 13.4945 -5.60524 3.59867 -4.4248
532 1 15.277 -9.44093 1.31484 -4.27621
533 1 15.101 -7.04152 4.84491 -4.63346
534 1 16.2647 -5.58891 1.68807 -4.42452
535 1 16.1319 -7.77817 2.86634 -3.52441
536 1 16.4105 -6.00558 6.59398 -4.02704
537 1 18.034 -4.16185 2.70151 -4.36463
538 1 -17.7057 -5.17362 4.53041 -4.53691
539 1 -16.8591 -3.02201 1.3613 -4.28083
540 1 -18.4421 -4.01942 2.66734 -4.42637
541 1 -18.8514 -1.86153 3.85391 -4.00814
542 1 -16.1666 -3.75679 5.63645 -4.61065
543 1 -16.5677 -1.27748 3.14045 -5.28786
544 1 -14.668 -5.30597 1.75352 -4.41813
545 1 -14.8699 -2.0984 4.61744 -4.26642
546 1 -12.6255 -4.87785 4.76264 -4.47026
547 1 -12.5575 -2.28519 1.55158 -4.50886
548 1 -13.7115 -3.546 3.12209 -4.46331
549 1 -13.5139 -1.27273 6.47836 -4.40293
550 1 -11.3139 -3.782 6.26441 -4.4924
551 1 -11.2203 -1.3178 3.16294 -4.45252
552 1 -10.0948 -4.98719 1.65017 -4.46747
553 1 -10.0397 -2.41537 4.83445 -4.45201
554 1 -7.64393 -4.69309 4.79672 -4.53845
555 1 -7.45099 -2.33737 1.79348 -4.44726
556 1 -8.93441 -3.61918 3.07609 -4.51249
557 1 -8.83694 -1.13372 6.31704 -4.52449
558 1 -6.18619 -3.48637 6.17384 -4.50203
559 1 -6.22712 -0.936506 3.2822 -4.54804
560 1 -5.2479 -4.77208 1.55714 -4.50529
561 1 -4.83175 -2.28935 4.64222 -4.54569
562 1 -2.62834 -4.68313 4.96465 -4.44837
563 1 -2.54993 -2.39301 1.64421 -4.53719
564 1 -3.77203 -3.80886 3.13435 -4.46258
565 1 -3.56786 -0.970025 6.35783 -4.45539
566 1 -1.14504 -3.59019 6.54773 -4.47018
567 1 -1.13609 -1.15618 3.13389 -4.47
568 1 0.0193176 -4.7776 1.82457 -4.45255
569 1 0.0458027 -2.33892 4.81766 -4.49914
570 1 2.56179 -4.74436 5.38213 -4.47728
571 1 2.48521 -2.18921 1.80672 -4.45901
572 1 1.50202 -3.64408 3.41821 -4.4663
573 1 1.31997 -1.11891 6.41791 -4.48841
574 1 3.93526 -3.40179 6.80626 -4.54238
575 1 3.74421 -1.20749 3.58635 -4.52602
576 1 4.97471 -4.68647 2.0253 -4.41506
577 1 5.22954 -2.2604 5.2423 -4.43657
578 1 7.45338 -4.99006 5.06253 -4.50665
579 1 7.40428 -1.96084 2.11342 -4.49221
580 1 6.24923 -3.53832 3.52468 -4.49568
581 1 6.36085 -0.839835 6.88338 -4.52488
582 1 8.73435 -3.74145 6.67517 -4.55017
583 1 8.69378 -0.825437 3.79352 -4.48676
584 1 10.1345 -4.51931 2.02971 -4.44281
585 1 9.8112 -2.13689 5.35173 -4.51917
586 1 12.327 -4.4797 5.4656 -4.46417
587 1 12.6134 -2.23678 2.29039 -4.25357
588 1 11.2353 -3.30121 3.84306 -4.49364
589 1 11.0778 -0.967507 7.0021 -4.4806
590 1 13.9703 -3.2848 6.79064 -4.52731
591 1 13.7808 -0.900593 3.79376 -4.51099
592 1 14.6209 -3.98551 2.34788 -4.80566
593 1 15.1463 -1.77057 5.4609 -4.49308
594 1 17.6507 -4.57608 5.1183 -3.55228
595 1 18.3829 -2.30659 1.10386 -4.38472
596 1 16.4485 -3.00172 3.87198 -4.32815
597 1 16.4056 -0.0446626 6.32968 -4.35842
598 1 18.4484 -0.933499 7.21916 -4.44815
599 1 19.2131 -0.354549 2.30709 -4.28096
600 1 -18.4421 -0.214542 2.12455 -3.94628
601 1 -16.8631 0.331057 4.92906 -4.48756
602 1 -16.9858 2.64265 2.21558 -4.64296
603 1 -18.4513 1.6016 3.78475 -4.55317
604 1 -17.7696 3.42357 5.19876 -4.47497
605 1 -15.5907 1.46169 6.50903 -4.5739
606 1 -16.0501 4.05446 3.7672 -4.57631
607 1 -14.9751 0.134592 1.74129 -4.3601
608 1 -14.5811 2.56609 4.73495 -4.49716
609 1 -12.3634 0.0190016 4.87162 -4.45516
610 1 -12.5454 2.62554 1.31479 -4.47533
611 1 -13.4493 1.31713 3.09778 -4.45235
612 1 -13.2012 3.86249 6.09457 -4.54138
613 1 -11.1771 1.4635 6.37672 -4.52043
614 1 -11.5242 3.996 2.8663 -4.3467
615 1 -9.97525 0.112944 1.64574 -4.48173
616 1 -10.2031 2.72565 4.6776 -4.40851
617 1 -7.44847 0.141913 4.97075 -4.49604
618 1 -7.60621 2.63992 1.63383 -4.45027
619 1 -8.81881 1.2973 3.28163 -4.50672
620 1 -8.83429 3.73952 6.32518 -4.54797
621 1 -6.18696 1.39583 6.51142 -4.5353
622 1 -6.2812 3.72722 3.33951 -4.51755
623 1 -4.9875 0.235642 1.65697 -4.46152
624 1 -4.86066 2.64393 4.94281 -4.50552
625 1 -2.24323 0.196133 4.85144 -4.49506
626 1 -2.43622 2.73832 1.62632 -4.41685
627 1 -3.65198 1.43844 3.27909 -4.49176
628 1 -3.65383 3.84821 6.57742 -4.4864
629 1 -1.14268 1.51463 6.46695 -4.50161
630 1 -1.21469 3.71158 3.35742 -4.46079
631 1 -0.0426469 0.238302 1.51645 -4.53025
632 1 0.241646 2.5755 4.82684 -4.45297
633 1 2.62087 0.310521 4.96372 -4.45058
634 1 2.58435 2.89887 1.77032 -4.53409
635 1 1.43993 1.38417 3.08111 -4.43292
636 1 1.28908 3.98605 6.6238 -4.49883
637 1 3.98264 1.41153 6.77173 -4.46363
638 1 3.77277 3.9085 3.58875 -4.41514
639 1 4.91352 0.270397 2.13679 -4.43261
640 1 5.04344 2.93164 5.42504 -4.43111
641 1 7.44434 0.572001 5.38136 -4.52431
642 1 7.31529 2.69703 2.20117 -4.39611
643 1 6.01627 1.58334 3.76066 -4.44762
644 1 6.30706 4.11796 6.92516 -4.5452
645 1 8.98016 1.64384 6.89903 -4.48232
646 1 8.34045 4.11089 3.87047 -4.47081
647 1 10.0106 0.347443 2.17695 -4.52362
648 1 9.98189 3.07273 5.30666 -4.4651
649 1 12.308 0.196831 5.32751 -4.52426
650 1 12.4248 2.88371 2.22557 -4.48589
651 1 11.1788 1.57843 3.77282 -4.5233
652 1 11.1819 4.12765 7.17255 -4.42499
653 1 13.4913 1.44806 6.9065 -4.50726
654 1 13.5875 4.10099 3.79952 -4.45333
655 1 14.6964 0.191074 1.82169 -4.45469
656 1 14.7556 2.51012 5.20831 -4.42867
657 1 17.5496 -0.00200086 4.18218 -4.51729
658 1 17.2314 2.23498 1.61062 -4.54319
659 1 15.9754 1.47852 3.33517 -4.54112
660 1 16.3435 3.56854 6.60017 -4.31705
661 1 18.8227 1.74308 4.91793 -4.4481
662 1 18.7387 3.72953 2.49531 -4.53319
663 1 20.1078 1.79152 2.80043 -4.24848
664 1 -18.5407 5.74288 5.15875 -4.41805
665 1 -16.6542 7.58664 1.78336 -4.41009
666 1 -17.6874 5.64795 2.93267 -4.38848
667 1 -16.2349 6.42491 5.71156 -4.42905
668 1 -15.6029 9.3383 3.09225 -4.24609
669 1 -15.6701 4.91901 0.35219 -4.53724
670 1 -14.5622 7.28967 4.25348 -4.6743
671 1 -12.8099 5.4242 4.44016 -4.23938
672 1 -12.9818 7.58199 1.02737 -4.54252
673 1 -14.7344 6.35665 2.0503 -4.44871
674 1 -13.728 8.82886 5.99294 -4.4213
675 1 -11.1728 6.40882 5.98064 -4.50868
676 1 -11.4585 8.64865 2.66253 -4.4141
677 1 -10.1769 5.12086 1.36254 -4.52866
678 1 -10.0447 7.56026 4.24394 -4.5006
679 1 -7.59815 5.03263 4.72761 -4.49209
680 1 -7.56358 7.4275 1.40484 -4.56112
681 1 -8.76343 6.04307 2.96371 -4.50562
682 1 -8.76214 8.74242 5.90875 -4.36731
683 1 -6.23053 6.28814 6.35071 -4.46325
684 1 -6.12819 8.55034 2.87028 -4.56289
685 1 -4.99425 5.022 1.82219 -4.44733
686 1 -4.92327 7.53441 4.61811 -4.41367
687 1 -2.27477 4.98826 4.99832 -4.44547
688 1 -2.59368 7.42313 1.65686 -4.44152
689 1 -3.55585 6.16241 3.28016 -4.48778
690 1 -4.1968 8.93922 6.42506 -4.42746
691 1 -1.49127 6.53359 6.55574 -4.46089
692 1 -1.40173 8.78543 3.29047 -4.42876
693 1 0.0226489 5.04613 1.91748 -4.37161
694 1 -0.222117 7.62441 4.80443 -4.4523
695 1 2.61 5.28504 5.22607 -4.5323
696 1 2.42963 7.82807 2.07502 -4.49991
697 1 1.25304 6.35764 3.54013 -4.51933
698 1 0.937289 8.94497 6.54909 -4.49586
699 1 3.92217 6.48603 6.80724 -4.51068
700 1 3.71493 9.06541 3.6843 -4.44406
701 1 5.03502 5.26115 2.09873 -4.48511
702 1 5.24265 7.98009 5.34792 -4.41077
703 1 7.4989 5.58278 5.50763 -4.39193
704 1 7.55836 7.99791 2.19715 -4.32429
705 1 6.17663 6.6313 3.68857 -4.41265
706 1 6.36737 9.30141 7.07456 -4.40296
707 1 8.89198 6.6539 7.31357 -4.4077
708 1 8.46796 8.70707 4.27339 -4.56613
709 1 9.69404 5.23069 2.28017 -4.3191
710 1 10.1759 7.88474 5.61004 -4.31004
711 1 12.5154 5.29313 5.5019 -4.39762
712 1 12.29 7.1405 2.72573 -4.4601
713 1 10.7588 6.10539 4.22788 -4.53007
714 1 11.8643 9.2694 8.20924 -4.44514
715 1 13.7706 6.33449 7.18457 -4.33286
716 1 13.6487 8.16209 4.38581 -4.29729
717 1 14.987 5.00763 2.1415 -4.38726
718 1 15.1791 8.08624 6.28543 -4.78452
719 1 17.6911 3.83613 4.61244 -4.31879
720 1 18.2436 7.07825 2.01815 -4.22811
721 1 16.1517 6.6407 3.16798 -4.44405
722 1 17.0211 9.16761 7.33216 -3.91144
723 1 18.1667 6.19412 4.43856 -4.15727
724 1 -15.5251 11.0932 4.69945 -3.79123
725 1 -14.7233 10.5262 1.24258 -4.49065
726 1 -14.7649 12.992 3.38951 -4.4538
727 1 -12.2077 9.9701 4.54495 -4.47108
728 1 -11.7873 12.6742 1.59055 -4.11215
729 1 -13.1762 11.3259 2.90455 -4.73095
730 1 -12.874 14.0879 4.39609 -4.05451
731 1 -10.8103 11.4091 5.76116 -4.5756
732 1 -10.8004 14.2871 3.00765 -5.39693
733 1 -10.0697 9.92465 1.1787 -4.57201
734 1 -9.57801 12.5624 4.08086 -4.27812
735 1 -7.54516 9.8405 4.23523 -4.63048
736 1 -7.54965 12.6898 1.03019 -4.53561
737 1 -8.57194 11.1774 2.57949 -4.56523
738 1 -7.82649 13.5345 5.33661 -4.94338
739 1 -6.48645 11.455 5.49021 -4.02939
740 1 -5.86115 13.7961 2.37068 -4.66115
741 1 -4.99436 10.1414 1.43806 -4.51762