ITEM: TIMESTEP
324000
ITEM: NUMBER OF ATOMS
4050
ITEM: BOX BOUNDS ss ss pp
-2.0423396624538587e+01 2.0197834360388811e+01
-2.0135213314086549e+01 2.0312281420879348e+01
-4.3991100000000012e+00 5.8709110000000003e+01
ITEM: ATOMS id type x y z c_peratom
1 1 -11.7338 -15.083 -2.23288 -3.88368
2 1 -7.09658 -17.3785 -3.87419 -4.13578
3 1 -8.56393 -17.1029 -0.122654 -4.53077
4 1 -6.62563 -18.4994 0.0466837 -3.6239
5 1 -5.81229 -15.9863 -2.61305 -4.68445
6 1 -5.01398 -17.9077 -1.56338 -4.61698
7 1 -2.42528 -17.6374 58.6327 -4.60086
8 1 -4.46516 -18.7332 -3.81773 -3.85359
9 1 -3.55497 -16.6927 0.0777043 -4.44544
10 1 -0.565357 -18.9797 0.390912 -4.47441
11 1 -1.55377 -16.1159 -2.98425 -4.48247
12 1 0.3208 -18.703 -2.83145 -4.04301
13 1 -0.412984 -17.172 -1.18285 -4.56962
14 1 2.87809 -17.3598 -4.07621 -4.65037
15 1 2.50466 -19.3769 -2.93708 -4.3911
16 1 1.29023 -16.1065 0.2118 -4.61052
17 1 3.05369 -18.5643 -0.755633 -4.19757
18 1 3.92423 -15.9614 -2.55651 -4.60035
19 1 5.11238 -17.583 -1.50427 -4.45726
20 1 6.52994 -17.7925 -3.40927 -4.21025
21 1 9.07126 -16.8252 -0.445077 -4.23972
22 1 6.01942 -16.2126 0.171419 -4.48754
23 1 8.60395 -16.5865 -2.80129 -4.18225
24 1 10.5426 -14.9562 0.232734 -4.53372
25 1 -14.9458 -12.3116 -2.51351 -4.24605
26 1 -14.8871 -13.6083 -0.440286 -4.23231
27 1 -13.2719 -15.3592 -0.554289 -4.27869
28 1 -12.0437 -12.6209 58.1394 -4.56797
29 1 -13.3152 -13.7405 -3.43189 -3.85448
30 1 -13.9271 -11.4964 -0.445776 -4.20577
31 1 -11.2025 -14.039 -0.143721 -5.32728
32 1 -11.0413 -11.6185 -3.08536 -4.47274
33 1 -9.7745 -15.2513 -4.36597 -4.00289
34 1 -9.80035 -12.4229 -1.28933 -4.24426
35 1 -7.59931 -15.2327 -1.19439 -4.59823
36 1 -7.07443 -12.7357 -4.13414 -4.48997
37 1 -8.59956 -13.8172 -2.77657 -4.59729
38 1 -8.38933 -11.5113 0.382236 -4.49049
39 1 -6.2253 -13.895 0.157335 -4.5175
40 1 -6.04719 -11.1371 -2.83262 -4.50783
41 1 -4.71882 -15.2568 58.5205 -4.47338
42 1 -4.84498 -12.5181 -1.33927 -4.44855
43 1 -2.68293 -14.9098 -1.35268 -4.40563
44 1 -2.43619 -12.192 58.5893 -4.43764
45 1 -3.65595 -13.6979 -3.15297 -4.45951
46 1 -3.79317 -11.1951 0.395382 -4.55349
47 1 -1.37931 -13.7758 0.216024 -4.53925
48 1 -1.31992 -11.1658 -2.70751 -4.46216
49 1 0.0444299 -15.0947 -4.3551 -4.57778
50 1 -0.0917502 -12.3455 -1.10786 -4.46843
51 1 2.46593 -14.6993 -1.22791 -4.54202
52 1 2.70078 -12.6384 58.7443 -4.44815
53 1 1.1573 -13.4996 -2.86343 -4.47346
54 1 1.29335 -11.1078 0.528107 -4.47782
55 1 3.91174 -13.5635 0.426429 -4.49586
56 1 3.71722 -11.2646 -2.72771 -4.51779
57 1 4.88152 -14.9162 -4.41177 -4.54471
58 1 5.13718 -12.5334 -1.28086 -4.508
59 1 7.59732 -15.0503 -1.23365 -5.02246
60 1 7.72008 -12.6361 58.5226 -4.3827
61 1 6.36107 -13.7814 -2.94294 -4.35625
62 1 6.22916 -11.0486 0.299699 -4.53039
63 1 8.81493 -13.4855 0.0699563 -4.41122
64 1 8.61424 -11.1556 -2.66944 -4.44131
65 1 9.95184 -15.448 -4.44264 -4.15417
66 1 9.99708 -12.0513 -1.15101 -4.26607
67 1 12.2212 -14.5036 -1.35697 -4.18562
68 1 11.7371 -11.7329 -4.14431 -4.40177
69 1 10.6899 -13.5319 -2.95979 -4.87087
70 1 11.174 -11.0904 0.732718 -4.53362
71 1 13.8131 -13.0885 -0.45553 -4.11103
72 1 13.7539 -10.9246 -1.60766 -4.923
73 1 15.4559 -12.4988 -2.06793 -4.23823
74 1 16.0232 -10.4869 -0.917768 -3.93529
75 1 -17.5086 -7.49139 58.1182 -4.18724
76 1 -18.547 -6.04439 1.37028 -3.98249
77 1 -16.4088 -8.78334 0.760681 -3.59096
78 1 -16.3253 -6.78341 -2.78469 -4.36134
79 1 -15.0794 -10.5139 -4.26819 -4.27844
80 1 -15.1093 -8.10278 -1.19797 -4.4752
81 1 -12.2293 -10.2412 -1.57454 -4.50644
82 1 -12.419 -7.65641 -4.35774 -4.54002
83 1 -13.7488 -9.11286 -2.89044 -4.56113
84 1 -13.6118 -6.80042 0.283362 -4.42586
85 1 -11.2039 -9.15557 0.23354 -4.41506
86 1 -11.1424 -6.37094 -2.86543 -4.52523
87 1 -9.55297 -10.1793 -4.20762 -4.59415
88 1 -10.1667 -7.44575 -1.06931 -4.5277
89 1 -7.24748 -9.99868 -1.05553 -4.53995
90 1 -7.34024 -7.56534 -4.10764 -4.49254
91 1 -8.7352 -8.75179 -2.50737 -4.54742
92 1 -8.66652 -6.32783 0.457457 -4.49429
93 1 -6.16253 -8.62829 0.598772 -4.49143
94 1 -6.05423 -6.07201 -2.71178 -4.52697
95 1 -4.90273 -9.7672 -4.48434 -4.43852
96 1 -4.87216 -7.44024 -1.13812 -4.47898
97 1 -2.4044 -9.8669 -1.01863 -4.53384
98 1 -2.42347 -7.2681 -4.20442 -4.47541
99 1 -3.65506 -8.67647 -2.65071 -4.46383
100 1 -3.72162 -6.20807 0.559729 -4.52078
101 1 -1.02927 -8.54483 0.49641 -4.50371
102 1 -1.37637 -5.87471 -2.67709 -4.46996
103 1 0.0464388 -10.0129 58.8501 -4.54063
104 1 -0.0232216 -7.26631 -1.28475 -4.45448
105 1 2.5101 -9.91781 -1.16812 -4.47857
106 1 2.68541 -7.4915 -4.36159 -4.52232
107 1 1.24984 -8.6915 -2.77505 -4.53835
108 1 1.22297 -6.19923 0.522882 -4.45683
109 1 3.62708 -8.5468 0.391931 -4.4689
110 1 3.82523 -6.05954 -2.80024 -4.49294
111 1 4.99459 -10.0655 -4.37983 -4.51768
112 1 4.92574 -7.35739 -1.1754 -4.47708
113 1 7.49131 -9.70578 -1.16105 -4.48848
114 1 7.6573 -7.58062 -4.36199 -4.51957
115 1 6.17428 -8.66376 -2.86977 -4.49211
116 1 6.227 -6.10299 0.390301 -4.47391
117 1 8.70648 -8.60318 0.543653 -4.50599
118 1 8.8286 -6.26799 -2.79288 -4.43796
119 1 10.1316 -9.97584 -3.94843 -4.45466
120 1 10.0446 -7.25956 -0.960212 -4.53921
121 1 12.4599 -9.52302 -0.372047 -4.39872
122 1 12.3964 -7.31751 -4.01126 -4.54523
123 1 11.3298 -8.70758 -2.30689 -4.49792
124 1 11.3836 -6.03891 0.615851 -4.51398
125 1 14.2597 -8.21404 0.600587 -4.59466
126 1 13.7385 -6.05887 -2.67129 -4.6499
127 1 14.4819 -9.80593 -3.6409 -4.54862
128 1 15.2021 -7.33833 -1.34952 -4.66347
129 1 16.6465 -6.83813 -4.31942 -4.42877
130 1 16.3123 -8.87866 -2.6565 -4.42391
131 1 16.5611 -5.64761 -0.412327 -4.53894
132 1 18.3958 -5.3186 -4.39301 -3.69985
133 1 -17.9216 -5.5559 -1.43838 -3.81505
134 1 -17.5155 -2.67368 -3.97348 -4.97524
135 1 -18.6243 -3.30188 -1.9746 -4.27624
136 1 -17.6125 -2.29261 -0.112003 -4.57206
137 1 -16.4617 -5.20721 0.592979 -4.48572
138 1 -16.1596 -1.11574 -2.88736 -4.59882
139 1 -14.9207 -5.43322 -4.11349 -4.50756
140 1 -15.4085 -2.56615 -1.11356 -4.47068
141 1 -12.5342 -5.25595 -1.30732 -4.50829
142 1 -12.578 -2.4791 -4.28392 -4.42038
143 1 -13.8918 -3.69825 -2.64098 -4.42443
144 1 -13.9839 -1.3827 0.28684 -4.48552
145 1 -11.5186 -4.04559 0.428222 -4.53042
146 1 -11.1833 -1.30844 -2.64321 -4.45554
147 1 -9.89166 -4.81021 -4.22753 -4.53132
148 1 -10.2249 -2.66833 -0.951334 -4.52581
149 1 -7.60183 -5.03298 -1.24658 -4.53555
150 1 -7.42316 -2.59823 58.6963 -4.44015
151 1 -8.71866 -3.55195 -2.62201 -4.45517
152 1 -8.80779 -1.23557 0.358999 -4.57555
153 1 -6.31534 -3.82158 0.25914 -4.50119
154 1 -6.28738 -1.20631 -2.95859 -4.52987
155 1 -4.95148 -4.95702 -4.50708 -4.48581
156 1 -5.02998 -2.47747 -1.31608 -4.52491
157 1 -2.68306 -4.81882 -0.932191 -4.44495
158 1 -2.38688 -2.39023 -4.40621 -4.52874
159 1 -3.75447 -3.69836 -2.83515 -4.44664
160 1 -3.74278 -1.1828 0.246282 -4.54204
161 1 -1.14181 -3.46356 0.278833 -4.54262
162 1 -1.10638 -0.958224 -2.95884 -4.4882
163 1 -0.0301576 -4.91506 58.7272 -4.51395
164 1 0.172567 -2.42393 -1.36138 -4.45003
165 1 2.49859 -4.9781 -1.16174 -4.44826
166 1 2.59939 -2.3398 58.6821 -4.53846
167 1 1.34992 -3.71664 -2.90106 -4.52729
168 1 1.31059 -1.19831 0.287716 -4.5078
169 1 3.81749 -3.70552 0.373709 -4.49654
170 1 3.87937 -1.22361 -2.74115 -4.4867
171 1 5.06652 -4.99058 -4.45169 -4.48596
172 1 5.1626 -2.52047 -1.12155 -4.49988
173 1 7.64026 -4.96489 -1.07457 -4.48187
174 1 7.64443 -2.39751 58.7933 -4.43464
175 1 6.36436 -3.82675 -2.75069 -4.47982
176 1 6.23565 -1.12655 0.471768 -4.55731
177 1 8.86037 -3.65613 0.491824 -4.52909
178 1 8.66431 -1.08376 -2.501 -4.44158
179 1 9.95556 -4.83334 -4.32419 -4.42498
180 1 10.1062 -2.30321 -1.00897 -4.45565
181 1 12.6372 -4.79048 -0.945157 -4.48107
182 1 12.3987 -2.54883 -4.10292 -4.49803
183 1 11.1367 -3.86213 -2.63639 -4.40865
184 1 11.558 -1.53725 0.903877 -4.35224
185 1 14.7299 -4.12606 0.0780424 -4.40186
186 1 13.5573 -1.53888 -2.27622 -4.47312
187 1 15.1484 -5.05234 -4.24771 -4.55333
188 1 15.458 -2.30067 -1.18092 -4.4887
189 1 17.8008 -4.56442 -2.10129 -4.61432
190 1 17.5757 -2.07015 58.3194 -4.68535
191 1 16.2704 -3.17122 -3.14445 -4.62099
192 1 16.3899 -1.08756 0.640759 -4.24482
193 1 18.6733 -2.48006 -1.09064 -3.61298
194 1 18.7626 -0.570019 -3.40213 -3.57983
195 1 -19.4102 -1.37491 -3.18706 -4.3791
196 1 -18.1741 -0.113783 0.111792 -4.31489
197 1 -18.2171 2.1301 -3.81525 -4.30731
198 1 -17.9346 0.229211 -2.21454 -4.48146
199 1 -18.0644 4.01588 1.34094 -4.2192
200 1 -16.3586 1.11741 0.861432 -4.5211
201 1 -16.6858 3.19932 -2.49183 -4.44604
202 1 -15.0356 0.0870387 58.4995 -4.5829
203 1 -15.3804 1.81697 -1.22467 -4.41019
204 1 -12.7009 -0.202191 -1.28373 -4.49283
205 1 -12.46 2.44284 58.6351 -4.54529
206 1 -13.7615 1.18986 -2.96029 -4.44811
207 1 -14.0459 3.42608 -0.0520882 -4.50733
208 1 -11.5617 1.1738 0.357787 -4.52565
209 1 -11.3625 3.68356 -2.79433 -4.55117
210 1 -9.98756 -0.258563 58.6877 -4.43073
211 1 -10.269 2.32506 -1.21623 -4.51697
212 1 -7.43669 0.00423086 -1.194 -4.49004
213 1 -7.51271 2.45446 58.7003 -4.54359
214 1 -8.83634 1.22752 -2.75066 -4.50507
215 1 -8.70586 3.38285 0.187794 -4.55112
216 1 -6.24444 1.3619 0.186033 -4.45356
217 1 -6.3252 3.89191 -3.0167 -4.51058
218 1 -4.86389 0.033324 58.6288 -4.52726
219 1 -5.00594 2.68006 -1.38033 -4.5117
220 1 -2.41356 0.14322 -1.28793 -4.52613
221 1 -2.28444 2.55074 58.7047 -4.50112
222 1 -3.71173 1.33371 -2.88099 -4.55163
223 1 -3.79288 3.91777 0.256049 -4.49741
224 1 -1.39766 1.57047 0.289301 -4.51188
225 1 -1.07315 3.95029 -2.8417 -4.49916
226 1 0.0979647 0.301812 58.6195 -4.48222
227 1 0.170165 2.68198 -1.16299 -4.50913
228 1 2.64778 0.0897986 -1.26666 -4.57382
229 1 2.6604 2.78991 -4.25676 -4.46752
230 1 1.4302 1.45008 -2.77655 -4.51536
231 1 1.44443 3.84102 0.344012 -4.51203
232 1 3.79013 1.52241 0.242414 -4.46759
233 1 3.88511 4.01625 -2.67524 -4.49974
234 1 4.82597 0.141138 58.7271 -4.49378
235 1 5.21895 2.68055 -1.20207 -4.55247
236 1 7.48416 0.285827 -0.938363 -4.46024
237 1 7.56447 2.61648 -4.26514 -4.50493
238 1 6.28187 1.20809 -2.81429 -4.4852
239 1 6.56582 3.90921 0.418201 -4.44274
240 1 8.82229 1.30093 0.820922 -4.48588
241 1 8.79655 4.04806 -2.58875 -4.43257
242 1 9.94162 0.170333 -4.1755 -4.41535
243 1 9.87322 2.52475 -0.966203 -4.52243
244 1 12.5043 -0.118592 -0.694089 -4.47877
245 1 12.1912 2.61957 -3.74839 -4.62013
246 1 11.1985 1.03198 -2.27966 -4.484
247 1 11.2618 3.80194 0.542421 -4.49821
248 1 13.6443 1.23481 0.828969 -4.52815
249 1 13.4955 4.0178 -2.32328 -4.50212
250 1 14.5116 -0.105737 -3.89366 -4.47752
251 1 14.7277 2.54459 -0.937917 -4.36156
252 1 17.7039 -0.180926 -1.09845 -4.88999
253 1 16.7664 2.06822 -4.01427 -4.32971
254 1 15.7906 0.909674 -2.17015 -4.33131
255 1 16.3432 4.00664 0.00573431 -4.80927
256 1 18.9915 0.935496 0.687821 -4.2219
257 1 18.4574 3.76027 -3.95255 -4.20646
258 1 18.8514 1.48592 58.2873 -4.20913
259 1 -18.1497 4.75028 -1.39108 -4.00534
260 1 -17.4867 7.64406 57.8296 -4.52419
261 1 -17.8885 5.92355 -3.67085 -4.1021
262 1 -16.7865 6.45951 -0.319446 -4.46128
263 1 -15.9168 8.72303 -3.68561 -3.56406
264 1 -15.8737 4.48059 -4.40942 -5.30333
265 1 -15.248 7.434 -1.85539 -4.52514
266 1 -13.006 4.91633 -1.54983 -4.55428
267 1 -12.7259 7.14437 -4.57815 -4.49029
268 1 -14.2329 5.9434 -3.27305 -4.27699
269 1 -14.0966 8.60259 -0.0790002 -4.46933
270 1 -11.6648 6.0074 0.0243991 -4.55821
271 1 -11.5722 8.6596 -3.02544 -4.52059
272 1 -10.1602 4.94164 -4.36772 -4.51233
273 1 -10.288 7.32469 -1.43082 -4.61326
274 1 -7.52965 4.93166 -1.2969 -4.49674
275 1 -7.54387 7.45208 -4.48928 -4.49942
276 1 -8.83588 6.11779 -2.84018 -4.52671
277 1 -8.9002 8.57994 0.0601831 -4.52765
278 1 -6.47617 6.34681 0.188832 -4.47785
279 1 -6.22272 8.68726 -3.0698 -4.52182
280 1 -4.8909 5.07118 -4.63389 -4.52537
281 1 -5.12682 7.44055 -1.43818 -4.52296
282 1 -2.34124 5.0663 -1.17497 -4.48872
283 1 -2.46263 7.58631 58.638 -4.52429
284 1 -3.72067 6.17086 -2.85834 -4.47159
285 1 -3.6876 8.67395 0.108122 -4.48354
286 1 -0.919104 6.24277 0.362189 -4.51288
287 1 -1.12278 8.75117 -2.95038 -4.5237
288 1 0.104747 5.24213 -4.38989 -4.49654
289 1 0.137975 7.56092 -1.30736 -4.55371
290 1 2.78841 5.21449 -0.972279 -4.49654
291 1 2.66491 7.63469 -4.52745 -4.45996
292 1 1.62096 6.36097 -2.7955 -4.43709
293 1 1.19629 9.06087 0.21769 -4.48737
294 1 3.92951 6.64343 0.583133 -4.54546
295 1 3.96771 8.78578 -2.83207 -4.40796
296 1 5.09839 5.31923 -4.13179 -4.45843
297 1 5.26687 7.84268 -1.01022 -4.48923
298 1 7.70666 5.55352 -1.07953 -4.53551
299 1 7.66105 8.15347 -4.41392 -4.21447
300 1 6.45389 6.70148 -2.75803 -4.43868
301 1 6.50837 9.25603 0.311523 -4.3755
302 1 9.22657 6.66507 0.339926 -4.31333
303 1 9.29675 9.40503 -3.36496 -4.80079
304 1 9.80688 5.36081 -4.17585 -4.5579
305 1 10.0649 7.91123 -1.68429 -4.25132
306 1 12.2394 5.52722 -0.922744 -4.35821
307 1 12.6284 7.45259 57.9775 -4.87892
308 1 11.4718 6.63752 -3.04755 -4.2943
309 1 11.5528 9.33845 1.24932 -4.66414
310 1 13.6588 6.5432 0.484387 -4.49111
311 1 13.3357 9.50517 -3.98688 -4.4477
312 1 14.3681 4.80217 58.6394 -4.50155
313 1 15.189 7.92536 -0.736463 -4.46698
314 1 18.007 4.78676 -1.74066 -4.0339
315 1 16.0498 6.42119 58.4458 -4.61874
316 1 16.2551 6.4558 -2.21935 -3.62493
317 1 16.3877 8.37097 1.38669 -4.33239
318 1 18.2329 5.28905 0.697121 -4.02039
319 1 -15.6953 12.2518 1.48064 -4.15249
320 1 -14.366 10.021 58.5961 -4.59593
321 1 -15.0976 12.8364 -0.815283 -4.11627
322 1 -12.5115 9.95871 -1.28662 -4.61608
323 1 -12.663 12.7331 -4.13685 -4.93448
324 1 -13.9481 11.3727 -2.46618 -4.20957
325 1 -13.6859 13.5922 0.907972 -4.88516
326 1 -11.0268 11.0832 0.134864 -4.40845
327 1 -11.8189 14.1282 -2.42828 -4.24387
328 1 -10.0639 9.92438 58.748 -4.61468
329 1 -10.3608 12.5216 -1.63791 -4.44042
330 1 -7.55971 9.85561 -1.39256 -4.50242
331 1 -7.42331 12.3253 58.4411 -4.50459
332 1 -8.76704 11.2996 -2.95359 -4.51456
333 1 -8.97125 13.6203 0.061391 -4.48545
334 1 -6.21996 11.0975 -0.0572435 -4.54258
335 1 -6.28738 13.6757 -3.07894 -4.55291
336 1 -4.82971 10.0524 58.5852 -4.51722
337 1 -4.94595 12.5744 -1.32302 -4.49496
338 1 -2.46705 10.1164 -1.46549 -4.55423
339 1 -2.17889 12.6359 -4.46194 -4.5586
340 1 -3.67622 11.4772 -3.02447 -4.57625
341 1 -3.76233 14.0702 0.153935 -4.39175
342 1 -1.37987 11.4237 0.208554 -4.51462
343 1 -1.05315 13.9456 -2.76151 -4.55884
344 1 0.113284 9.95895 -4.54059 -4.4917
345 1 0.104902 12.5282 -1.31553 -4.51519
346 1 2.80242 10.1582 -1.30505 -4.53513
347 1 2.72598 12.7444 58.6774 -4.44968
348 1 1.45689 11.2216 -2.97451 -4.47698
349 1 1.04605 13.8241 0.317592 -4.47244
350 1 3.82937 11.6514 0.148229 -4.49717
351 1 3.9084 14.1683 -2.95262 -4.41552
352 1 4.90227 10.1649 58.5417 -4.37766
353 1 5.15942 12.8115 -1.4564 -4.10131
354 1 7.60448 10.1261 -1.76599 -4.18132
355 1 7.0881 12.4034 58.0679 -4.42275
356 1 6.0953 11.3602 -3.03562 -4.5175
357 1 6.31956 14.2525 0.750411 -4.12747
358 1 8.90181 12.1207 1.23062 -4.45591
359 1 8.46583 13.2954 -3.45044 -4.44608
360 1 10.1135 10.3461 57.7139 -4.40868
361 1 8.78576 12.2007 -1.25579 -4.92883
362 1 11.8204 9.30904 -1.15768 -4.56369
363 1 12.3337 11.4054 58.0746 -4.46978
364 1 10.6555 11.0774 -2.07689 -4.30815
365 1 10.3413 13.8753 1.56627 -4.49305
366 1 13.3498 10.7005 1.55229 -4.51218
367 1 12.2193 12.7178 -1.51124 -3.61168
368 1 15.2561 9.94866 57.7716 -4.10805
369 1 13.5484 10.9085 -0.841449 -4.59124
370 1 15.1101 9.81567 -2.43443 -3.80624
371 1 -13.7832 14.7853 -1.12773 -3.83579
372 1 -12.5541 15.7171 1.35393 -3.84902
373 1 -9.54459 14.9224 58.5161 -4.41526
374 1 -7.86894 14.7524 -1.71562 -4.55106
375 1 -8.39648 16.9899 58.337 -4.46202
376 1 -9.18205 16.4037 -2.66715 -4.44878
377 1 -6.51592 15.6543 -0.0873719 -4.70043
378 1 -7.34694 17.8212 -2.73991 -3.608
379 1 -4.92668 15.2338 58.7238 -4.55077
380 1 -5.38677 17.364 -1.4483 -4.64424
381 1 -2.62804 15.2689 -1.51198 -4.48826
382 1 -2.34481 17.991 -4.63164 -4.52428
383 1 -3.70796 16.7066 -3.11547 -4.43606
384 1 -5.00641 18.7176 0.523075 -4.02456
385 1 -1.57434 16.3492 0.345855 -4.50192
386 1 -0.639804 18.6532 -3.02422 -3.71114
387 1 0.372549 15.1282 -4.32724 -4.45898
388 1 -0.0532961 17.3648 -1.05291 -4.64856
389 1 2.56085 14.9397 -1.10799 -4.39848
390 1 2.99154 18.0568 -3.45509 -4.36274
391 1 1.44867 16.4143 -2.61216 -4.63264
392 1 1.01112 19.0613 0.199419 -4.38405
393 1 2.9639 16.3556 0.775451 -4.41085
394 1 2.74506 19.3023 -1.51539 -4.1457
395 1 5.66864 15.1864 58.6555 -4.12757
396 1 4.24716 17.9464 -0.201279 -4.51963
397 1 8.49492 16.8823 -2.3247 -4.34506
398 1 9.67533 17.6087 -4.2734 -4.1118
399 1 7.158 15.0537 -2.66442 -4.36735
400 1 3.91717 19.3573 1.60967 -4.29469
401 1 7.16577 16.2408 1.56314 -4.56386
402 1 9.96704 14.387 58.2348 -4.53421
403 1 10.2958 14.1342 -0.86077 -4.25455
404 1 10.4612 15.76 -2.89242 -4.34374
405 1 1.32683 19.6916 -3.64839 -4.31047
406 1 -12.0137 -15.8023 1.41491 -4.32804
407 1 -7.54474 -17.6805 1.94645 -3.71494
408 1 -8.56513 -16.1311 6.81657 -3.6815
409 1 -6.16668 -18.8195 7.42408 -4.09903
410 1 -5.96234 -16.6076 3.45451 -4.47784
411 1 -5.20974 -18.1438 5.15708 -4.43324
412 1 -2.33829 -18.0627 1.66411 -4.441
413 1 -3.22024 -18.7894 3.85957 -3.52438
414 1 -3.75348 -16.3663 5.75124 -4.44407
415 1 -1.4819 -18.8964 5.47433 -4.1586
416 1 -1.29231 -16.2885 2.81996 -4.6387
417 1 1.13717 -19.9803 -1.01546 -4.25481
418 1 0.12857 -17.4616 4.23115 -4.53569
419 1 2.7326 -17.4969 1.3327 -4.49612
420 1 0.939678 -18.7238 2.25894 -3.66693
421 1 1.06208 -16.1407 6.03711 -4.42548
422 1 4.38841 -18.2829 7.16954 -4.3284
423 1 3.72212 -16.3545 3.18151 -4.4989
424 1 5.13619 -17.6477 4.64753 -4.39872
425 1 7.45676 -17.6025 1.3092 -4.45913
426 1 7.28105 -17.634 3.69993 -3.74008
427 1 5.76138 -15.7397 5.89369 -4.40575
428 1 8.16767 -15.7571 2.69117 -4.52033
429 1 12.66 -14.8012 7.64682 -4.44942
430 1 -17.0167 -9.85763 3.86895 -4.24826
431 1 -15.6504 -11.8907 3.62661 -4.13289
432 1 -12.6407 -14.1953 2.95161 -4.04318
433 1 -12.4037 -12.4804 1.34214 -4.69941
434 1 -14.6308 -13.4009 2.00335 -4.18934
435 1 -14.1561 -11.5529 5.42106 -4.9434
436 1 -11.4482 -13.7669 5.48544 -4.31744
437 1 -11.1563 -11.4087 3.13125 -4.39656
438 1 -9.72062 -15.4231 1.14301 -4.10213
439 1 -9.73313 -12.4774 4.63204 -4.54843
440 1 -7.53761 -15.3635 4.85671 -4.595
441 1 -7.27665 -12.9698 2.0289 -4.50785
442 1 -8.89526 -14.1923 3.17236 -4.41598
443 1 -9.15993 -11.3165 6.62783 -4.37834
444 1 -6.49089 -13.6207 6.10521 -4.55186
445 1 -6.45346 -11.1728 3.44838 -4.54787
446 1 -4.971 -15.4793 1.46744 -4.45889
447 1 -4.96322 -12.3447 4.68928 -4.49442
448 1 -2.37589 -14.8541 4.39102 -4.46625
449 1 -2.43698 -12.4525 1.79013 -4.60257
450 1 -3.98479 -13.8755 3.00652 -4.55136
451 1 -4.11373 -11.2342 6.56221 -4.45804
452 1 -1.52946 -13.5802 6.33287 -4.51789
453 1 -1.32089 -11.0982 3.48026 -4.46967
454 1 0.0668158 -14.8468 1.76763 -4.54459
455 1 0.00278164 -12.288 5.07191 -4.56419
456 1 2.72083 -14.9409 4.79438 -4.42705
457 1 2.70323 -12.1991 2.10459 -4.55948
458 1 1.2619 -13.663 3.44089 -4.51892
459 1 1.36781 -11.2153 6.80613 -4.40803
460 1 4.15654 -14.0714 6.69061 -4.69536
461 1 3.98848 -10.9044 3.61697 -4.4921
462 1 5.17276 -14.8177 1.9608 -4.48165
463 1 4.92363 -12.4208 5.13983 -4.37682
464 1 7.67422 -14.9176 4.91734 -4.49746
465 1 7.53414 -12.3202 1.8363 -4.3572
466 1 6.42957 -13.333 3.56222 -4.43967
467 1 6.32141 -11.0886 6.66788 -4.50003
468 1 8.93603 -13.5025 6.43355 -4.38184
469 1 8.96912 -11.1182 3.44549 -4.56102
470 1 10.4483 -15.5982 2.67802 -3.56142
471 1 10.3331 -12.3031 5.01195 -4.5888
472 1 12.9342 -14.4679 5.33573 -3.78658
473 1 12.8054 -12.5694 1.77896 -4.39781
474 1 11.6351 -13.7482 3.59183 -4.66903
475 1 11.6614 -10.9814 6.48711 -4.45237
476 1 13.0026 -12.55 7.69737 -4.7012
477 1 14.217 -11.2946 3.24792 -4.56363
478 1 14.5733 -12.8054 5.08242 -3.66444
479 1 15.2656 -12.5076 7.46527 -4.43006
480 1 -17.6447 -7.89294 2.60172 -4.66079
481 1 -18.5246 -4.95417 8.33684 -4.25109
482 1 -16.5183 -9.02634 6.17627 -4.37337
483 1 -16.1377 -6.39233 3.67793 -4.62073
484 1 -15.166 -10.0092 2.28606 -4.60432
485 1 -14.8852 -7.67547 5.27743 -4.64118
486 1 -12.2389 -10.0831 4.90634 -4.29894
487 1 -12.385 -7.88388 1.97189 -4.42162
488 1 -13.6689 -8.76441 3.6342 -4.59552
489 1 -13.6367 -6.39036 6.88797 -4.46468
490 1 -11.616 -8.84253 6.99325 -4.24692
491 1 -11.3331 -6.36883 3.46115 -4.46543
492 1 -9.61197 -10.1841 1.86456 -4.51918
493 1 -10.3001 -7.59755 5.35589 -4.42273
494 1 -7.72933 -10.1123 5.17513 -4.56752
495 1 -7.65153 -7.57939 2.21121 -4.47201
496 1 -9.02006 -8.79568 3.71889 -4.46201
497 1 -8.89901 -6.31822 6.77501 -4.54592
498 1 -6.39869 -8.81519 6.68756 -4.53566
499 1 -6.33727 -6.21222 3.71116 -4.55777
500 1 -4.87761 -9.9078 2.09122 -4.55734
501 1 -5.0357 -7.53895 5.10934 -4.52028
502 1 -2.59969 -10.091 5.18437 -4.51837
503 1 -2.40669 -7.4603 2.04188 -4.55211
504 1 -3.67449 -8.66135 3.6463 -4.52219
505 1 -3.83321 -6.23607 6.67166 -4.50954
506 1 -1.44965 -8.77777 6.76644 -4.49489
507 1 -1.19259 -6.05641 3.42272 -4.50984
508 1 0.143365 -9.89098 2.11983 -4.55549
509 1 -0.157706 -7.48879 5.09101 -4.4908
510 1 2.47054 -9.97459 5.15051 -4.50564
511 1 2.67215 -7.17651 2.1 -4.48584
512 1 1.39822 -8.51275 3.54819 -4.5666
513 1 1.17958 -6.13565 6.60375 -4.53263
514 1 3.55138 -8.66429 6.77197 -4.52666
515 1 3.9099 -5.93101 3.7056 -4.55178
516 1 5.15191 -9.63933 2.00805 -4.46655
517 1 4.97074 -7.49719 5.15116 -4.55192
518 1 7.57597 -10.0279 4.97856 -4.53606
519 1 7.7286 -7.05843 2.08546 -4.51015
520 1 6.4948 -8.37136 3.57682 -4.534
521 1 6.18699 -6.101 6.62093 -4.55427
522 1 8.82901 -8.79763 6.61967 -4.57313
523 1 9.35583 -6.01617 3.5549 -4.45871
524 1 10.1583 -9.54915 2.2093 -4.56712
525 1 10.2711 -7.42258 5.16706 -4.48668
526 1 13.0767 -10.0121 4.78989 -4.50567
527 1 12.9418 -6.9597 2.18228 -4.45445
528 1 11.7258 -8.45161 3.58443 -4.59538
529 1 11.5981 -6.28318 6.86118 -4.6198
530 1 14.1878 -8.79574 6.46259 -4.50299
531 1 14.0363 -6.00063 3.98543 -4.42731
532 1 15.5279 -9.79622 1.86493 -4.09575
533 1 15.6005 -7.29084 5.34694 -4.58571
534 1 16.6545 -5.86152 1.98046 -4.42837
535 1 16.2337 -7.92476 3.17838 -3.77846
536 1 16.9316 -6.19047 6.93551 -4.13501
537 1 18.3373 -4.44075 3.06635 -4.32039
538 1 -17.513 -5.39214 5.14854 -4.50356
539 1 -16.933 -3.32015 1.9458 -4.30214
540 1 -18.5415 -4.40867 3.19562 -4.46609
541 1 -18.9041 -2.31525 4.34754 -4.01399
542 1 -16.1775 -3.90888 6.394 -4.65261
543 1 -16.7598 -1.48334 3.57657 -5.36452
544 1 -14.7088 -5.69335 2.00248 -4.32093
545 1 -14.9869 -2.44269 4.99081 -4.26622
546 1 -12.5742 -5.09936 5.08508 -4.45454
547 1 -12.7612 -2.68357 1.89733 -4.53682
548 1 -13.9565 -3.97099 3.42617 -4.4724
549 1 -13.6509 -1.33792 6.72492 -4.44996
550 1 -11.2773 -3.908 6.59175 -4.4616
551 1 -11.3702 -1.46972 3.45913 -4.48543
552 1 -10.0101 -5.04975 1.89386 -4.53165
553 1 -10.0578 -2.57921 5.10563 -4.52854
554 1 -7.54285 -5.00836 5.27128 -4.49488
555 1 -7.609 -2.55319 1.95654 -4.54199
556 1 -8.82202 -3.8755 3.56481 -4.48778
557 1 -8.7287 -1.24563 6.65691 -4.49083
558 1 -6.21037 -3.83753 6.7402 -4.4928
559 1 -6.15285 -1.31572 3.39773 -4.49899
560 1 -5.14671 -5.00877 2.03892 -4.51894
561 1 -5.06769 -2.53964 5.0526 -4.48709
562 1 -2.50181 -4.93844 5.20405 -4.48673
563 1 -2.49147 -2.30509 1.85653 -4.49564
564 1 -3.75781 -3.66225 3.48392 -4.51018
565 1 -3.72212 -1.2002 6.56046 -4.56095
566 1 -1.23881 -3.47481 6.53561 -4.52811
567 1 -1.09094 -0.98876 3.35989 -4.47097
568 1 0.0878863 -4.81258 1.94542 -4.50205
569 1 0.126768 -2.26073 4.99814 -4.47015
570 1 2.40864 -4.75583 5.21357 -4.53094
571 1 2.74281 -2.26788 1.96769 -4.51088
572 1 1.36156 -3.48094 3.48253 -4.52447
573 1 1.30259 -1.03913 6.72078 -4.3936
574 1 3.76334 -3.56248 6.7517 -4.51484
575 1 3.91283 -1.02363 3.55193 -4.49212
576 1 5.21395 -4.78235 2.11852 -4.46878
577 1 5.1653 -2.46644 5.15584 -4.49596
578 1 7.71747 -5.04528 5.15698 -4.47748
579 1 7.63601 -2.23952 2.02805 -4.50798
580 1 6.65859 -3.66484 3.64722 -4.52131
581 1 6.3999 -1.25395 6.80295 -4.51646
582 1 8.91366 -3.80691 6.7483 -4.54337
583 1 8.94365 -1.08923 3.6659 -4.48088
584 1 10.3321 -4.50596 2.0524 -4.39415
585 1 9.96594 -2.13293 5.55068 -4.51014
586 1 12.7687 -4.76727 5.60851 -4.52961
587 1 12.8378 -2.59199 2.76984 -4.25295
588 1 11.2551 -3.59351 4.13494 -4.52115
589 1 11.4975 -1.27486 7.13464 -4.53256
590 1 14.2463 -3.69406 7.11851 -4.51871
591 1 13.786 -1.10586 4.16852 -4.52993
592 1 14.8821 -4.20862 2.63006 -4.87025
593 1 15.2418 -2.09146 5.7178 -4.56813
594 1 17.8671 -4.53716 5.49888 -3.53678
595 1 18.2051 -2.4896 1.31577 -4.3126
596 1 16.5529 -3.14664 3.97373 -4.40036
597 1 16.4438 -0.196205 6.57588 -4.34694
598 1 18.705 -0.913278 7.37221 -4.437
599 1 18.8135 -0.489472 2.58104 -4.30612
600 1 -18.8177 -0.496977 2.65883 -3.89692
601 1 -17.1212 0.079978 5.41769 -4.48986
602 1 -17.0165 2.42217 2.74725 -4.61725
603 1 -18.5236 1.43601 4.2271 -4.52606
604 1 -18.1749 3.36924 5.62943 -4.40076
605 1 -15.7251 1.23746 6.971 -4.54461
606 1 -16.2463 3.97924 4.16243 -4.47555
607 1 -15.0067 -0.292484 2.1893 -4.3287
608 1 -14.8801 2.30998 5.10641 -4.50265
609 1 -12.3671 -0.0897938 5.20687 -4.49196
610 1 -12.8477 2.5893 1.93086 -4.42611
611 1 -13.596 1.02104 3.57994 -4.4971
612 1 -13.5677 3.62874 6.49223 -4.61626
613 1 -11.1095 1.28729 6.69411 -4.50205
614 1 -11.3014 3.89222 3.31789 -4.39748
615 1 -10.2087 -0.109683 1.91859 -4.55149
616 1 -10.0847 2.62964 4.90478 -4.47728
617 1 -7.6022 -0.0194824 4.94873 -4.49377
618 1 -7.55946 2.39087 2.0195 -4.46052
619 1 -8.94727 1.14136 3.42113 -4.56826
620 1 -8.53527 3.66827 6.40218 -4.52597
621 1 -6.23812 1.28406 6.51467 -4.52188
622 1 -6.30149 3.9059 3.39382 -4.55771
623 1 -5.03622 0.11997 1.78831 -4.48359
624 1 -4.99252 2.63312 4.92499 -4.54706
625 1 -2.32989 0.172557 5.19767 -4.41662
626 1 -2.52898 2.75247 2.00021 -4.49312
627 1 -3.68344 1.28371 3.49339 -4.50442
628 1 -3.87885 3.94678 6.56493 -4.47301
629 1 -1.21973 1.42378 6.97219 -4.50216
630 1 -1.21835 4.07539 3.54718 -4.48385
631 1 0.0854327 0.245463 1.752 -4.52337
632 1 -0.0498968 2.68644 5.21241 -4.42613
633 1 2.50199 0.190621 4.99302 -4.47191
634 1 2.66465 2.55647 1.95246 -4.4652
635 1 1.21537 1.46949 3.47214 -4.45994
636 1 1.44757 3.81494 6.82289 -4.53143
637 1 3.7083 1.18216 6.77798 -4.44109
638 1 3.84416 3.8548 3.56741 -4.47153
639 1 5.02857 0.298665 1.95199 -4.51353
640 1 5.09896 2.60179 5.2764 -4.50257
641 1 7.56573 0.0728827 5.18797 -4.52519
642 1 7.56771 2.73671 2.20292 -4.52156
643 1 6.28038 1.4503 3.62866 -4.51153
644 1 6.54681 3.8385 6.81343 -4.52568
645 1 8.82441 1.29145 6.79491 -4.46326
646 1 8.86678 3.95334 3.77467 -4.50426
647 1 10.3028 0.0787224 2.18696 -4.56716
648 1 10.0472 2.60179 5.31805 -4.56244
649 1 12.5282 0.160968 5.58223 -4.51255
650 1 12.6028 2.78233 2.20462 -4.54582
651 1 11.527 1.39732 3.81142 -4.4994
652 1 11.2105 4.0575 6.78875 -4.41242
653 1 13.7475 1.67779 6.96894 -4.48335
654 1 13.9319 4.25163 3.50418 -4.44653
655 1 14.9187 -0.177011 2.30505 -4.49272
656 1 14.7547 2.55453 4.97335 -4.4057
657 1 17.6104 0.205223 4.47629 -4.5384
658 1 17.1699 2.21558 1.41126 -4.55553
659 1 16.1669 1.52647 3.35238 -4.60526
660 1 16.3165 3.68747 6.49277 -4.35233
661 1 19.1713 1.7747 5.20401 -4.43748
662 1 18.7147 3.56565 2.43282 -4.5274
663 1 20.0582 1.59941 2.85852 -4.18039
664 1 -18.3276 5.72561 5.72993 -4.37224
665 1 -16.9148 7.35009 2.07556 -4.39213
666 1 -17.8836 5.4823 3.16303 -4.32526
667 1 -16.2178 6.44244 6.40352 -4.47014
668 1 -15.803 8.96146 3.55709 -4.28326
669 1 -15.8108 4.69844 0.789745 -4.5623
670 1 -14.5666 7.04302 4.59027 -4.65042
671 1 -12.7966 5.17832 4.83026 -4.21016
672 1 -12.8687 7.3835 1.48563 -4.51057
673 1 -14.7522 6.27962 2.33523 -4.35524
674 1 -13.8743 8.68709 6.19429 -4.42596
675 1 -11.2484 6.22065 6.59179 -4.50738
676 1 -11.3268 8.30499 3.18333 -4.4381
677 1 -10.015 4.85306 1.41538 -4.45478
678 1 -9.94743 7.26176 4.81451 -4.43711
679 1 -7.48209 5.24472 4.98238 -4.45875
680 1 -7.6514 7.47264 1.77769 -4.4921
681 1 -8.80115 6.04053 3.09885 -4.38861
682 1 -8.74205 8.62264 6.37587 -4.54931
683 1 -6.02633 6.46258 6.54749 -4.39693
684 1 -6.20143 8.71832 3.14533 -4.52989
685 1 -5.09523 5.05348 1.78532 -4.49849
686 1 -4.84896 7.515 4.66909 -4.45645
687 1 -2.55413 5.23212 5.09833 -4.46987
688 1 -2.23526 7.63262 1.78025 -4.50063
689 1 -3.55772 6.21588 3.24727 -4.50759
690 1 -3.65524 8.72463 6.36418 -4.46796
691 1 -1.19652 6.29434 6.67672 -4.51219
692 1 -1.42977 8.97361 3.54176 -4.42032
693 1 0.296986 5.02787 2.04319 -4.49333
694 1 -0.192889 7.51173 4.94646 -4.52559
695 1 2.67965 5.06726 5.24022 -4.51743
696 1 2.32356 7.69754 1.85099 -4.50601
697 1 1.46095 6.33393 3.65111 -4.50332
698 1 1.03396 8.67528 6.61694 -4.48583
699 1 3.9547 6.62858 6.51617 -4.54196
700 1 3.70819 8.99158 3.37953 -4.47177
701 1 5.13669 5.11335 2.00271 -4.55108
702 1 5.26704 7.88435 4.92856 -4.41404
703 1 7.744 5.3674 5.41815 -4.45859
704 1 7.77987 7.72154 1.88298 -4.38199
705 1 6.50235 6.31005 3.504 -4.44949
706 1 6.35061 9.03611 6.90309 -4.3344
707 1 9.02516 6.76426 6.93458 -4.37772
708 1 8.70506 8.83117 3.77056 -4.54751
709 1 10.067 5.13008 2.15645 -4.39795
710 1 10.2694 8.03408 5.37888 -4.34238
711 1 12.612 5.27511 5.27243 -4.46157
712 1 12.6596 7.60049 2.29715 -4.50427
713 1 11.188 6.51242 3.76614 -4.61006
714 1 11.804 9.26369 8.06096 -4.45922
715 1 13.577 6.65732 6.93163 -4.29855
716 1 13.6749 8.56521 4.21114 -4.2227
717 1 15.1503 5.19499 1.66115 -4.39227
718 1 15.3162 8.08624 5.93718 -4.70866
719 1 17.9112 3.73335 4.71997 -4.33748
720 1 18.2555 7.10908 2.23453 -4.27922
721 1 16.1323 6.74279 3.0853 -4.44113
722 1 16.9876 9.49715 7.16549 -3.94256
723 1 17.9294 6.10514 4.48174 -4.20297
724 1 -15.6785 10.8307 5.1751 -3.60782
725 1 -14.8328 10.0834 1.66578 -4.59175
726 1 -14.7013 12.5275 3.79461 -4.60997
727 1 -12.3106 9.683 4.78471 -4.505
728 1 -11.8249 12.517 1.86732 -4.18129
729 1 -13.1348 11.0039 3.02288 -4.72624
730 1 -13.0122 13.7562 4.94321 -3.99404
731 1 -11.0597 11.1373 6.08034 -4.5089
732 1 -10.9074 14.0536 3.51577 -5.38518
733 1 -10.0848 9.70274 1.72867 -4.48824
734 1 -9.63503 12.3609 4.73685 -4.37738
735 1 -7.31311 9.88873 4.89401 -4.53312
736 1 -7.62793 12.2109 1.43061 -4.52245
737 1 -8.62713 10.869 3.19115 -4.51293
738 1 -8.1061 13.9175 5.84451 -4.54736
739 1 -6.14587 11.321 6.36599 -4.49977
740 1 -6.2692 13.6174 2.84155 -4.59405
741 1 -4.98181 10.131 1.70405 -4.48141