ITEM: TIMESTEP
282000
ITEM: NUMBER OF ATOMS
4050
ITEM: BOX BOUNDS ss ss pp
-2.0560551820120150e+01 2.0339250930701589e+01
-2.0442832687223781e+01 2.0399347583298770e+01
-3.8288550000000003e+00 5.8138855000000000e+01
ITEM: ATOMS id type x y z c_peratom
1 1 -12.015 -14.9717 -1.66288 -4.03654
2 1 -7.19039 -18.0336 -3.27259 -4.52492
3 1 -8.74385 -17.1121 0.216654 -4.57774
4 1 -6.70106 -18.2879 0.104774 -3.68278
5 1 -6.16097 -16.2088 -2.3101 -4.64122
6 1 -4.82114 -17.6075 -1.15075 -4.52534
7 1 -2.63162 -18.2661 -3.91586 -4.50844
8 1 -4.92437 -19.0124 -3.18601 -4.25979
9 1 -3.66011 -16.792 0.750916 -4.34993
10 1 -1.04421 -19.0879 0.805254 -4.30878
11 1 -1.67484 -16.4837 -2.56026 -4.51241
12 1 0.239201 -19.7047 -2.05932 -4.49121
13 1 -0.252406 -17.7354 -1.04135 -4.59568
14 1 2.97212 -17.7239 57.968 -4.6347
15 1 2.39106 -19.0849 -2.28131 -3.76692
16 1 1.24091 -16.5792 0.471367 -4.60846
17 1 3.25263 -19.4022 -0.156279 -4.46907
18 1 3.90864 -16.3356 -2.25354 -4.6516
19 1 5.11986 -17.8907 -0.969842 -4.39301
20 1 6.64863 -18.3165 -2.89921 -4.26864
21 1 9.10911 -17.1963 -0.0652164 -4.26981
22 1 5.96399 -16.7008 0.833991 -4.46924
23 1 8.33131 -16.7816 -2.2319 -4.11015
24 1 10.7477 -15.768 0.789247 -3.97772
25 1 -15.0202 -12.5348 -2.08187 -4.28823
26 1 -15.4521 -13.6228 0.00376005 -4.36182
27 1 -13.9097 -15.4074 -0.335068 -4.07323
28 1 -12.2553 -13.0391 57.6713 -4.64241
29 1 -13.7355 -14.2084 -2.9821 -4.24525
30 1 -13.9269 -11.7142 -0.163064 -4.18495
31 1 -11.2374 -13.898 0.401868 -4.91594
32 1 -11.3339 -11.595 -2.66361 -4.58272
33 1 -10.0611 -15.5447 58.2284 -4.00703
34 1 -9.84877 -12.5743 -1.08984 -4.37369
35 1 -7.70085 -15.3189 -0.904134 -4.52672
36 1 -7.40926 -12.6609 -3.8463 -4.59234
37 1 -8.84284 -14.0719 -2.55879 -4.61086
38 1 -8.72906 -11.4051 0.69997 -4.54972
39 1 -6.35317 -14.2295 0.586962 -4.55059
40 1 -6.14648 -11.433 -2.35874 -4.52066
41 1 -4.87702 -15.3403 57.9225 -4.51796
42 1 -4.98827 -12.7991 -0.662044 -4.47615
43 1 -2.78411 -15.2089 -0.860215 -4.45291
44 1 -2.42361 -12.7629 -3.91524 -4.57133
45 1 -3.90466 -13.9055 -2.45421 -4.48363
46 1 -3.92839 -11.2822 0.910239 -4.5453
47 1 -1.51387 -14.0525 0.695344 -4.50432
48 1 -1.3685 -11.3078 -2.33585 -4.57489
49 1 0.0945617 -15.4655 -3.949 -4.52653
50 1 -0.108632 -12.6391 -0.796625 -4.55332
51 1 2.5914 -15.0743 -0.790405 -4.55654
52 1 2.67641 -12.6706 58.2019 -4.53641
53 1 1.16865 -14.0391 -2.36737 -4.53098
54 1 1.23132 -11.2443 0.685691 -4.53137
55 1 3.91798 -13.9143 0.612561 -4.50335
56 1 3.79135 -11.1285 -2.21547 -4.52666
57 1 5.04022 -15.0278 -3.78598 -4.59072
58 1 5.11103 -12.6029 -0.878375 -4.54039
59 1 7.47093 -15.3792 -0.273996 -4.84211
60 1 7.78192 -12.7615 58.1574 -4.45647
61 1 6.53054 -14.004 -2.22598 -4.34939
62 1 6.08594 -11.3346 0.745955 -4.47769
63 1 8.7049 -13.6134 0.844441 -4.49339
64 1 8.48136 -11.2298 -2.14946 -4.60182
65 1 10.0543 -15.7296 -3.66207 -4.15444
66 1 9.90403 -12.3479 -0.699941 -4.18818
67 1 12.0638 -14.5925 -0.708112 -4.31969
68 1 11.5891 -11.768 -3.46895 -4.34263
69 1 10.5373 -13.7303 -2.42151 -4.81288
70 1 11.1224 -10.9699 1.09273 -4.49611
71 1 13.9577 -13.1263 0.223088 -4.06219
72 1 13.9932 -11.028 -1.10521 -4.88512
73 1 15.7787 -12.5559 -1.40187 -3.96853
74 1 16.1902 -10.2707 -0.442199 -4.07408
75 1 -17.3458 -7.58544 57.1264 -4.16276
76 1 -18.6682 -6.09574 1.71079 -4.0717
77 1 -16.2549 -8.92076 0.856637 -3.62088
78 1 -16.8419 -6.56562 -2.4273 -4.23563
79 1 -15.0195 -10.7104 58.172 -4.21741
80 1 -15.4485 -7.7143 -0.935473 -4.52578
81 1 -12.6196 -10.1057 -1.32054 -4.51047
82 1 -12.792 -7.60521 58.085 -4.59099
83 1 -14.2492 -8.92539 -2.51205 -4.5666
84 1 -13.935 -6.62475 0.45083 -4.48941
85 1 -11.4453 -9.10344 0.513689 -4.48727
86 1 -11.5437 -6.25513 -2.34369 -4.54845
87 1 -10.0548 -10.0039 58.062 -4.60046
88 1 -10.2373 -7.64685 -0.95582 -4.58597
89 1 -7.42317 -10.0366 -0.82679 -4.53894
90 1 -7.44813 -7.66858 -3.78702 -4.52063
91 1 -8.79584 -8.88377 -2.35141 -4.55131
92 1 -8.96859 -6.636 0.801122 -4.53826
93 1 -6.2615 -8.81763 0.7243 -4.46122
94 1 -6.44581 -6.21571 -2.22234 -4.45084
95 1 -4.91719 -10.0479 58.2553 -4.4855
96 1 -5.0158 -7.29234 -0.73497 -4.56632
97 1 -2.61074 -10.1374 -0.627752 -4.53206
98 1 -2.45844 -7.45426 -3.82752 -4.49424
99 1 -3.70162 -8.58103 -2.15663 -4.52466
100 1 -3.70202 -6.14264 0.847336 -4.52369
101 1 -1.302 -8.69375 0.8259 -4.56601
102 1 -1.31779 -6.08585 -2.3932 -4.5401
103 1 0.183697 -9.92761 58.4186 -4.55892
104 1 -0.166493 -7.34064 -0.701102 -4.48063
105 1 2.49839 -9.90051 -0.738558 -4.54759
106 1 2.9225 -7.41676 58.3212 -4.42592
107 1 1.32837 -8.42127 -2.21569 -4.56706
108 1 1.1934 -6.38007 1.00528 -4.56413
109 1 3.68286 -8.65693 1.00959 -4.52585
110 1 3.70922 -6.11421 -1.95483 -4.46464
111 1 5.13175 -9.99799 -3.84911 -4.56819
112 1 5.09893 -7.54027 -0.598365 -4.56076
113 1 7.44256 -9.84217 -0.594383 -4.49437
114 1 7.70017 -7.44846 -3.88936 -4.56365
115 1 6.32859 -8.62328 -2.33644 -4.51736
116 1 6.41849 -6.21162 0.887298 -4.52602
117 1 8.78877 -8.61252 1.03756 -4.46855
118 1 8.71783 -6.15738 -2.12617 -4.48007
119 1 10.0151 -10.0588 -3.48896 -4.44634
120 1 10.0077 -7.32848 -0.486913 -4.51869
121 1 12.4229 -9.41521 -0.135608 -4.42442
122 1 12.509 -7.6135 -3.80488 -4.5093
123 1 11.2695 -8.65732 -1.97622 -4.45054
124 1 11.5781 -6.2377 1.10496 -4.47867
125 1 14.1621 -8.18572 0.975404 -4.52905
126 1 13.6774 -6.15524 -2.37556 -4.67875
127 1 14.5061 -10.0051 -3.16147 -4.44478
128 1 15.2125 -7.31493 -0.926729 -4.5858
129 1 16.6504 -6.77367 -3.75414 -4.52545
130 1 16.3844 -8.75939 -2.38222 -4.44999
131 1 16.7035 -5.61691 0.143733 -4.42934
132 1 18.4867 -5.32056 -3.71065 -3.92708
133 1 -18.3126 -5.19306 -1.00376 -3.87601
134 1 -17.8061 -2.72442 -3.34883 -4.93095
135 1 -19.0813 -3.0013 -1.29379 -4.31806
136 1 -17.6936 -2.03722 0.203917 -4.60715
137 1 -16.7683 -4.99882 0.848221 -4.53592
138 1 -16.3822 -1.02789 -2.56082 -4.56948
139 1 -15.3575 -5.31535 58.3057 -4.58786
140 1 -15.5215 -2.28457 -0.765933 -4.47355
141 1 -12.683 -4.93817 -0.729391 -4.5635
142 1 -12.8409 -2.70118 -3.845 -4.53627
143 1 -14.2646 -3.79134 -2.22948 -4.44255
144 1 -14.0437 -1.25119 0.819164 -4.50978
145 1 -11.2321 -3.94524 0.780792 -4.49894
146 1 -11.3519 -1.37508 -2.4228 -4.514
147 1 -10.2968 -5.14211 -4.05588 -4.55221
148 1 -10.0521 -2.756 -0.843421 -4.49062
149 1 -7.84538 -5.1537 -0.581385 -4.48592
150 1 -7.63334 -2.59911 58.0242 -4.50222
151 1 -8.93839 -3.98563 -2.4398 -4.44977
152 1 -8.96101 -1.37245 0.741825 -4.47151
153 1 -6.46262 -3.82743 0.788734 -4.52938
154 1 -6.33882 -1.12938 -2.41784 -4.43721
155 1 -5.05662 -5.1629 -4.0409 -4.47612
156 1 -5.35528 -2.48014 -0.861489 -4.50507
157 1 -2.51612 -4.76142 -0.785389 -4.48475
158 1 -2.73798 -2.41716 -3.87067 -4.49574
159 1 -3.97583 -3.79774 -2.33072 -4.55129
160 1 -3.94325 -1.3693 0.726776 -4.53586
161 1 -1.18756 -3.61987 0.814663 -4.50324
162 1 -1.49681 -1.22868 -2.26509 -4.49826
163 1 0.196712 -4.97453 58.2434 -4.50328
164 1 -0.0728045 -2.12056 -0.644217 -4.53288
165 1 2.48926 -4.92987 -0.400992 -4.54344
166 1 2.322 -2.47269 -3.66669 -4.50673
167 1 1.15115 -3.62531 -1.97338 -4.48688
168 1 1.19309 -0.918619 0.911574 -4.48681
169 1 3.79334 -3.60932 1.02172 -4.5687
170 1 3.67892 -0.993225 -2.27279 -4.54834
171 1 5.02387 -4.97577 -3.63885 -4.50487
172 1 4.84187 -2.2332 -0.598991 -4.5066
173 1 7.52843 -4.78185 -0.717254 -4.53283
174 1 7.50811 -2.55982 -3.75144 -4.54655
175 1 6.08074 -3.5298 -2.10365 -4.54264
176 1 6.17219 -1.09957 0.920234 -4.47049
177 1 8.80361 -3.53176 0.847854 -4.55136
178 1 8.83201 -1.26 -2.22525 -4.5188
179 1 10.1069 -5.01133 58.2835 -4.51887
180 1 10.1493 -2.21156 -0.514578 -4.47791
181 1 12.5708 -4.95516 -0.605824 -4.46094
182 1 12.6343 -2.56002 58.4822 -4.42718
183 1 11.2328 -3.74457 -2.04063 -4.53099
184 1 11.5119 -1.51115 1.24109 -4.3132
185 1 14.573 -4.38394 0.509751 -4.43834
186 1 13.4344 -1.36129 -1.61675 -4.45142
187 1 15.119 -4.94557 -3.75727 -4.55954
188 1 15.2276 -2.39214 -0.554589 -4.59955
189 1 18.1523 -4.53808 -1.52461 -4.58308
190 1 17.8257 -2.05953 58.1693 -4.65424
191 1 16.3383 -3.3978 -2.38598 -4.68304
192 1 16.4558 -1.44712 1.14627 -4.28992
193 1 19.1665 -2.47506 -0.651733 -4.10889
194 1 19.3914 -0.860657 -2.44425 -3.74715
195 1 -19.6314 -1.05897 -2.676 -4.3641
196 1 -18.4987 0.0547108 0.576081 -4.36342
197 1 -18.0209 2.37948 -3.30445 -4.28081
198 1 -18.0566 0.459746 -1.81111 -4.48279
199 1 -17.9014 4.2377 2.02995 -4.48043
200 1 -16.7307 1.36567 1.18296 -4.52649
201 1 -16.819 3.52599 -1.6803 -4.47139
202 1 -15.0091 0.184756 58.0224 -4.56289
203 1 -15.218 2.29446 -0.48194 -4.47807
204 1 -12.6777 -0.0933506 -0.847576 -4.54864
205 1 -12.6354 2.46119 -3.79707 -4.56873
206 1 -13.9051 1.3558 -2.14697 -4.44597
207 1 -14.1276 3.97086 0.856188 -4.54832
208 1 -11.507 1.31662 0.699021 -4.56662
209 1 -11.4577 3.74898 -2.23859 -4.51936
210 1 -10.0099 -0.19343 57.9932 -4.51342
211 1 -10.1191 2.55011 -0.775795 -4.56759
212 1 -7.75503 -0.18689 -0.855169 -4.54561
213 1 -7.60333 2.43412 57.9975 -4.52628
214 1 -8.89667 1.18364 -2.30958 -4.50725
215 1 -8.79733 3.88191 0.719997 -4.54565
216 1 -6.32238 1.13902 0.511084 -4.52369
217 1 -6.56951 3.92968 -2.50831 -4.58383
218 1 -5.02327 0.0932821 57.827 -4.47101
219 1 -5.12139 2.63083 -1.08672 -4.46277
220 1 -2.77088 0.136707 -0.77051 -4.45777
221 1 -2.42151 2.65171 58.0111 -4.47085
222 1 -3.71652 1.27057 -2.56439 -4.50709
223 1 -3.95087 3.59697 0.682682 -4.48621
224 1 -1.46182 1.17076 0.986745 -4.55102
225 1 -1.33375 3.84823 -2.00727 -4.44806
226 1 -0.0846266 0.0538958 -3.83419 -4.53214
227 1 -0.135587 2.50752 -0.45417 -4.54825
228 1 2.50267 0.348445 -0.617218 -4.51344
229 1 2.37444 2.53028 -3.65581 -4.51984
230 1 1.0854 1.34786 -2.16976 -4.50338
231 1 1.15657 3.96317 0.959866 -4.5721
232 1 3.78253 1.55865 0.98585 -4.53267
233 1 3.65515 3.93301 -2.10333 -4.4792
234 1 5.20962 0.151172 -3.59764 -4.55342
235 1 5.02032 2.84268 -0.520091 -4.55614
236 1 7.74489 0.152091 -0.61373 -4.51544
237 1 7.51436 2.81353 -3.6141 -4.4599
238 1 6.37496 1.48883 -2.00323 -4.55782
239 1 6.2756 4.05119 1.05831 -4.59525
240 1 8.9282 1.4041 1.08692 -4.52856
241 1 8.71843 3.98575 -1.92143 -4.43995
242 1 10.0955 0.132639 -3.64687 -4.58563
243 1 10.1809 2.59416 -0.590027 -4.58535
244 1 12.3352 0.10658 -0.0640001 -4.45822
245 1 12.5304 2.59112 -3.65952 -4.5884
246 1 11.4622 1.19708 -2.07023 -4.43569
247 1 11.3961 3.92342 0.847943 -4.54022
248 1 13.855 1.37171 1.20616 -4.54691
249 1 13.9001 3.75952 -2.30222 -4.4135
250 1 14.7961 -0.201002 -3.21515 -4.50611
251 1 14.7534 2.31823 -0.718794 -4.46173
252 1 17.8612 -0.412545 -0.521446 -4.88475
253 1 17.1992 1.8023 -3.89512 -4.46028
254 1 16.2695 0.96161 -1.81822 -4.40759
255 1 16.1042 3.62713 0.543594 -4.58915
256 1 19.0745 1.02387 1.00535 -4.3167
257 1 18.7178 3.54099 -3.48042 -4.14916
258 1 19.4598 1.37796 57.6925 -3.94583
259 1 -17.8105 5.20098 -0.165926 -3.71947
260 1 -17.1924 7.99756 57.4168 -4.62665
261 1 -17.8814 6.2825 -3.05433 -3.86648
262 1 -16.8588 7.04328 0.828127 -4.6606
263 1 -16.5387 8.84705 -2.46907 -3.82603
264 1 -15.7918 4.96691 -3.30737 -5.06029
265 1 -15.272 7.89505 -0.73015 -4.60999
266 1 -12.7323 5.06165 -0.647705 -4.5604
267 1 -12.8394 7.62802 -3.86564 -4.52122
268 1 -13.9931 6.38772 -2.10657 -4.28134
269 1 -13.9612 9.26298 0.734247 -4.44164
270 1 -11.4991 6.29493 0.881849 -4.46475
271 1 -11.4579 8.98535 -2.47694 -4.5235
272 1 -10.3143 5.09065 -3.8177 -4.55708
273 1 -10.5374 7.51772 -0.792108 -4.4598
274 1 -7.79995 5.24699 -0.97821 -4.48972
275 1 -7.94017 7.79988 -4.04642 -4.5205
276 1 -9.14706 6.57156 -2.43409 -4.56159
277 1 -8.9952 8.72854 0.533539 -4.51178
278 1 -6.49921 6.23911 0.719489 -4.56273
279 1 -6.57358 8.80177 -2.39705 -4.54159
280 1 -5.21717 5.25869 58.0722 -4.59533
281 1 -5.2923 7.54354 -0.785933 -4.57197
282 1 -2.67567 5.14909 -0.622185 -4.5841
283 1 -2.4527 7.59874 58.2078 -4.51817
284 1 -3.89622 6.42537 -2.31314 -4.52198
285 1 -3.88539 8.80381 0.618523 -4.58796
286 1 -1.2182 6.34322 0.687992 -4.52504
287 1 -1.35031 9.11061 -2.29717 -4.55886
288 1 -0.178728 5.08955 58.2129 -4.47638
289 1 -0.00933893 7.85958 -0.772135 -4.58481
290 1 2.39623 5.20044 -0.585174 -4.50402
291 1 2.44 7.53458 58.1232 -4.52469
292 1 1.22499 6.3442 -2.19012 -4.51584
293 1 1.39718 8.9575 0.757712 -4.5297
294 1 3.7578 6.46097 0.814804 -4.52679
295 1 3.85404 8.80259 -2.42006 -4.52456
296 1 5.06477 4.97444 -3.87208 -4.43879
297 1 5.16686 7.74185 -0.731657 -4.52499
298 1 7.61029 5.3254 -0.424241 -4.55493
299 1 7.34199 7.21423 57.9679 -4.47474
300 1 6.23437 6.19983 -2.14556 -4.44113
301 1 6.48176 9.20904 0.738329 -4.40486
302 1 9.11796 6.75072 0.712786 -4.41592
303 1 8.63474 8.62531 -2.55671 -4.59495
304 1 9.84867 4.90237 58.1258 -4.42713
305 1 10.3373 7.76717 -1.15968 -4.33009
306 1 12.8148 5.09107 -0.678994 -4.45984
307 1 12.3007 7.50442 57.8193 -4.52218
308 1 11.3628 6.0112 -2.48216 -4.53348
309 1 11.6855 9.13272 1.37756 -4.46942
310 1 14.0598 6.51277 0.757996 -4.52496
311 1 13.7501 8.24153 -2.44056 -4.28457
312 1 14.9201 5.13285 58.0456 -4.4514
313 1 15.9035 7.66513 -0.176013 -4.57246
314 1 17.9579 4.13283 -0.790454 -4.36215
315 1 16.8321 6.33532 58.0214 -4.58178
316 1 16.8228 6.04656 -1.58705 -3.69087
317 1 16.7336 8.37707 1.96483 -4.42196
318 1 18.8572 5.07351 1.14832 -3.67214
319 1 -15.8601 12.8147 2.28612 -4.00247
320 1 -15.295 10.5243 -3.55064 -4.55629
321 1 -14.9289 13.1346 -0.253136 -3.88324
322 1 -12.5053 10.2143 -0.794103 -4.57773
323 1 -12.7015 12.9805 -3.77985 -4.89583
324 1 -13.7407 11.7646 -2.0476 -4.27162
325 1 -13.7485 14.0511 1.75899 -4.78145
326 1 -10.951 11.2423 0.576983 -4.43252
327 1 -12.0154 14.4895 -1.92437 -4.20033
328 1 -10.3591 10.4032 57.9258 -4.54815
329 1 -10.3942 12.9224 -1.14972 -4.46717
330 1 -7.86818 10.1462 -0.985644 -4.55985
331 1 -7.76785 12.6963 57.6344 -4.54591
332 1 -8.96934 11.5819 -2.50412 -4.4932
333 1 -8.89763 13.8875 0.403509 -4.44529
334 1 -6.4123 11.3344 0.370635 -4.52838
335 1 -6.51628 14.0765 -2.8353 -4.59427
336 1 -5.18474 10.0274 58.0311 -4.5297
337 1 -5.34704 12.7524 -1.20135 -4.49693
338 1 -2.79203 10.295 -0.940921 -4.5021
339 1 -2.51204 12.7731 58.0339 -4.55555
340 1 -3.92067 11.414 -2.56617 -4.58168
341 1 -4.16003 13.8046 0.541824 -4.37588
342 1 -1.40217 11.4907 0.656678 -4.55854
343 1 -1.29761 13.9317 -2.39301 -4.50154
344 1 0.120749 10.0934 58.0745 -4.5329
345 1 -0.017993 12.7402 -0.8433 -4.54073
346 1 2.7026 10.2282 -0.829693 -4.55218
347 1 2.45247 12.9893 57.9662 -4.48907
348 1 1.36111 11.5145 -2.31872 -4.52746
349 1 1.29281 13.7183 0.777129 -4.53085
350 1 3.95174 11.7727 0.600784 -4.50293
351 1 3.9705 13.9499 -2.43058 -4.58523
352 1 4.77567 10.1209 57.7874 -4.48775
353 1 5.37196 13.0067 -0.799073 -4.27754
354 1 7.54232 10.2515 -1.22457 -4.3266
355 1 6.98745 12.4852 57.6428 -4.5319
356 1 5.87676 11.3765 -2.57897 -4.46434
357 1 6.40511 14.3091 1.03066 -4.51884
358 1 9.13605 11.8629 1.04553 -4.37323
359 1 8.07149 13.7517 -2.62825 -4.28708
360 1 9.47625 9.90905 57.7164 -4.34176
361 1 9.20177 12.096 -1.49091 -4.82916
362 1 12.0783 9.32802 -1.06489 -4.84341
363 1 12.1987 12.0334 57.5035 -4.27218
364 1 11.0102 10.9078 -2.68298 -4.72905
365 1 10.8264 13.4711 1.54731 -4.54951
366 1 13.5154 10.4806 1.66082 -4.53379
367 1 12.6508 12.517 -2.15311 -4.30071
368 1 15.0046 9.56441 57.9079 -4.16953
369 1 13.7294 10.8761 -0.704904 -4.38646
370 1 15.4966 9.56641 -1.62023 -4.34898
371 1 -13.6458 15.187 -0.372035 -4.13177
372 1 -12.2403 15.9345 1.6145 -4.17359
373 1 -9.48226 15.4701 57.7577 -4.42256
374 1 -7.98546 15.1815 -1.38315 -4.48478
375 1 -8.42513 17.5498 57.3103 -4.49192
376 1 -9.14692 17.105 -2.45376 -4.41975
377 1 -6.45794 16.0033 0.248418 -4.71778
378 1 -7.07596 18.1054 -2.7294 -3.53918
379 1 -5.2008 15.6919 57.9034 -4.55268
380 1 -5.3426 17.713 -1.0302 -4.61411
381 1 -2.83993 15.0013 -0.930238 -4.51948
382 1 -2.58128 17.9196 57.5495 -4.52882
383 1 -3.68322 16.7036 -2.56292 -4.36211
384 1 -4.86763 18.6815 1.076 -3.90493
385 1 -1.47517 16.1675 0.583757 -4.53966
386 1 -0.893965 18.683 -2.98455 -3.6878
387 1 0.0160682 15.0948 58.0302 -4.4357
388 1 -0.502322 17.6605 -0.889703 -4.62628
389 1 2.49521 14.9968 -0.846362 -4.54649
390 1 2.26792 17.5483 -3.41043 -4.41045
391 1 0.955404 16.2496 -2.08547 -4.63292
392 1 1.16444 18.7788 0.446538 -4.3715
393 1 3.51285 16.4183 0.870511 -4.55287
394 1 2.76705 19.0313 -1.5141 -4.16711
395 1 4.87319 15.5448 -3.92323 -4.03119
396 1 4.65344 17.8927 -0.699968 -4.47957
397 1 8.31515 15.8424 -1.41894 -4.8538
398 1 9.06287 17.5605 -2.95996 -4.09077
399 1 6.12773 16.4624 -2.17071 -4.44591
400 1 5.74734 18.7865 1.25669 -3.70808
401 1 8.149 15.8703 0.982829 -4.41291
402 1 9.58796 14.6759 57.7995 -4.6093
403 1 10.9057 13.7498 -0.990294 -4.26866
404 1 10.4881 15.7423 -2.30687 -4.31221
405 1 1.16412 19.6991 -3.377 -4.27672
406 1 -12.2763 -15.8135 1.40257 -4.33205
407 1 -7.78004 -17.8961 2.17191 -3.70046
408 1 -9.01842 -16.2137 6.6298 -3.61385
409 1 -6.56638 -18.4906 7.58288 -3.97983
410 1 -6.33241 -16.6306 3.65799 -4.57745
411 1 -5.2461 -17.8743 5.56594 -4.46439
412 1 -2.46866 -18.0276 2.46285 -4.4308
413 1 -3.2021 -18.8912 4.63577 -3.58954
414 1 -3.59629 -16.501 6.69679 -4.6016
415 1 -1.15562 -19.2216 5.90292 -3.69621
416 1 -1.20616 -16.5051 3.69257 -4.71146
417 1 1.06941 -20.4199 0.293389 -4.07714
418 1 0.32152 -17.9301 4.74145 -4.31109
419 1 2.62518 -17.9875 1.64447 -4.4771
420 1 0.861311 -19.2254 2.29799 -4.14064
421 1 1.34332 -16.32 6.13306 -4.47649
422 1 3.97248 -18.8136 7.29782 -4.44753
423 1 3.80078 -16.6747 3.61613 -4.28127
424 1 4.98692 -17.5163 5.4412 -4.51451
425 1 7.67388 -17.7404 2.06783 -4.25963
426 1 7.02598 -17.9933 4.35553 -3.44487
427 1 6.26342 -16.1544 6.8974 -4.42005
428 1 8.76718 -16.3827 3.87689 -4.32955
429 1 12.8091 -14.4338 8.21318 -4.52434
430 1 -17.1031 -9.76726 4.02221 -4.33536
431 1 -16.2166 -12.0081 3.85222 -4.15522
432 1 -12.9211 -14.4262 3.30995 -4.1142
433 1 -12.7162 -12.5642 1.73213 -4.77364
434 1 -14.9122 -13.4865 2.32396 -4.15319
435 1 -14.6055 -11.6659 5.58532 -4.99796
436 1 -11.908 -14.1459 5.60361 -4.4308
437 1 -11.5124 -11.3508 3.41378 -4.46267
438 1 -9.89569 -15.5313 1.58427 -4.15636
439 1 -10.2433 -12.6965 4.955 -4.57639
440 1 -7.78277 -15.0663 4.85236 -4.60961
441 1 -7.47728 -12.7918 2.12332 -4.60836
442 1 -9.13698 -13.9748 3.30191 -4.50562
443 1 -9.16147 -11.3741 6.70552 -4.47889
444 1 -6.52181 -13.9567 6.49432 -4.52051
445 1 -6.44537 -11.4149 3.75279 -4.55636
446 1 -5.02865 -15.4175 2.09884 -4.5757
447 1 -5.07073 -12.6852 5.19036 -4.54095
448 1 -2.52984 -15.1013 5.10457 -4.54011
449 1 -2.55859 -12.6077 2.37486 -4.59117
450 1 -4.01851 -13.8975 3.63048 -4.52519
451 1 -3.87779 -11.5023 6.85696 -4.53832
452 1 -1.26688 -13.7159 6.68106 -4.58231
453 1 -1.33804 -11.2831 3.81851 -4.56469
454 1 0.0491887 -15.2563 2.10587 -4.59804
455 1 0.0687598 -12.6319 5.08141 -4.51464
456 1 2.82816 -15.055 4.84706 -4.53302
457 1 2.64924 -12.486 1.94381 -4.57451
458 1 1.32405 -13.7687 3.43634 -4.57841
459 1 1.20683 -11.4294 6.76932 -4.51359
460 1 3.82082 -13.6246 6.59819 -4.44432
461 1 3.82763 -11.2451 3.63415 -4.52616
462 1 4.97953 -15.133 2.32069 -4.48164
463 1 5.30577 -12.3106 5.25346 -4.54593
464 1 7.75193 -15.0682 5.50857 -4.43769
465 1 7.4555 -12.3462 2.36705 -4.46004
466 1 6.46685 -13.8549 3.94087 -4.50317
467 1 6.26804 -11.4772 7.25979 -4.5203
468 1 9.02482 -13.7939 7.00176 -4.41453
469 1 8.84911 -11.1827 4.01363 -4.54701
470 1 9.92046 -14.5825 2.63616 -4.41428
471 1 10.3447 -12.4621 5.28227 -4.53496
472 1 13.0029 -14.0123 5.78101 -3.60258
473 1 12.8252 -12.1768 2.17571 -4.54101
474 1 11.7065 -13.6311 3.80162 -4.50212
475 1 11.5042 -11.1128 6.84067 -4.44938
476 1 13.1256 -12.0479 8.32733 -4.67469
477 1 14.3524 -10.979 3.62336 -4.35332
478 1 14.8537 -12.598 5.53333 -3.64725
479 1 15.4048 -12.3842 7.83833 -4.52511
480 1 -17.4474 -7.86707 2.71256 -4.60462
481 1 -18.7321 -5.14403 8.58751 -4.24362
482 1 -16.6079 -9.00522 6.22144 -4.40088
483 1 -16.0956 -6.51658 3.99044 -4.69862
484 1 -15.2612 -10.2403 2.59364 -4.61341
485 1 -14.8672 -7.70813 5.51026 -4.61693
486 1 -12.7501 -10.2593 5.12603 -4.3877
487 1 -12.5772 -7.59287 2.05345 -4.42106
488 1 -13.9014 -8.75983 3.66864 -4.6142
489 1 -13.6365 -6.36341 6.94626 -4.44244
490 1 -11.8834 -9.13227 7.05425 -4.38762
491 1 -11.4694 -6.58353 3.9462 -4.48458
492 1 -10.046 -10.0163 2.15974 -4.51707
493 1 -10.2953 -7.89832 5.69275 -4.45596
494 1 -7.62963 -10.1153 5.28743 -4.53457
495 1 -7.56177 -7.75228 2.31573 -4.49716
496 1 -8.94393 -8.85736 3.8735 -4.45528
497 1 -9.12632 -6.3185 7.00908 -4.5847
498 1 -6.63226 -8.89942 7.06215 -4.56086
499 1 -6.41419 -6.42908 3.92467 -4.52235
500 1 -5.16504 -9.9604 2.41842 -4.5035
501 1 -5.29995 -7.67101 5.56772 -4.56165
502 1 -2.5058 -10.1136 5.46622 -4.54847
503 1 -2.66706 -7.47507 2.44395 -4.48582
504 1 -3.99458 -8.87265 4.03328 -4.47567
505 1 -3.85035 -6.32595 6.99905 -4.52887
506 1 -1.29112 -8.86212 6.98786 -4.58539
507 1 -1.19231 -6.2254 3.89967 -4.54655
508 1 -0.0196952 -10.031 2.30869 -4.52662
509 1 -0.0181218 -7.35152 5.66134 -4.48042
510 1 2.47394 -10.0528 5.25309 -4.57265
511 1 2.43388 -7.47197 2.67182 -4.53682
512 1 0.995494 -8.75725 4.01324 -4.58457
513 1 1.29334 -5.97283 7.31147 -4.51382
514 1 3.52641 -8.64212 6.85773 -4.4903
515 1 3.86837 -6.18871 4.11238 -4.54019
516 1 5.16926 -9.92588 2.33444 -4.51092
517 1 5.15207 -7.42673 5.63686 -4.59147
518 1 7.66568 -10.0958 5.81626 -4.51515
519 1 7.39618 -7.41737 2.69055 -4.5219
520 1 6.2209 -8.97947 4.14853 -4.42072
521 1 6.34541 -6.15382 7.16428 -4.48559
522 1 8.90581 -8.58563 7.30951 -4.56918
523 1 8.7964 -6.15581 4.03178 -4.51878
524 1 10.0997 -9.62189 2.70653 -4.55031
525 1 10.1018 -7.47336 5.65628 -4.4853
526 1 13.1134 -10.0828 5.47669 -4.55301
527 1 12.8949 -7.41188 2.76273 -4.43771
528 1 11.6195 -8.68718 4.23255 -4.50974
529 1 11.5818 -6.42856 7.26291 -4.57911
530 1 14.3179 -8.71119 6.94872 -4.52036
531 1 13.9187 -5.91202 4.23998 -4.47526
532 1 15.6469 -9.5633 2.06596 -4.36029
533 1 15.5279 -7.13688 5.64364 -4.635
534 1 16.7165 -5.68682 2.51612 -4.51258
535 1 16.3379 -7.77896 3.51798 -3.59903
536 1 16.7461 -6.16649 7.35945 -3.92499
537 1 18.4136 -4.30588 3.50278 -4.41627
538 1 -17.7396 -5.30012 5.16063 -4.58702
539 1 -17.1021 -3.08226 2.17685 -4.32456
540 1 -18.8418 -4.26243 3.32783 -4.49085
541 1 -19.1348 -2.15705 4.50283 -3.99538
542 1 -16.2515 -3.93122 6.3449 -4.60274
543 1 -16.8596 -1.33201 3.77651 -5.32339
544 1 -14.9598 -5.50489 2.24165 -4.3992
545 1 -15.0241 -2.46917 5.02264 -4.25078
546 1 -12.7582 -5.1136 5.23392 -4.51884
547 1 -12.5645 -2.6027 2.21119 -4.56922
548 1 -13.9611 -3.91518 3.56972 -4.48719
549 1 -13.8502 -1.43825 6.94157 -4.4141
550 1 -11.3605 -3.9803 6.81196 -4.48001
551 1 -11.4137 -1.21632 3.85819 -4.53008
552 1 -10.1651 -5.30518 2.35018 -4.51406
553 1 -10.056 -2.41592 5.38739 -4.50498
554 1 -7.67041 -5.11389 5.4497 -4.49643
555 1 -7.67025 -2.54556 2.37078 -4.53546
556 1 -8.95089 -3.98397 3.92202 -4.53953
557 1 -8.79733 -1.30813 7.09799 -4.49067
558 1 -6.43449 -3.86047 7.0594 -4.5766
559 1 -6.54483 -1.26046 3.95482 -4.46489
560 1 -5.15565 -5.00038 2.4026 -4.52947
561 1 -5.18007 -2.4632 5.54048 -4.55682
562 1 -2.52111 -5.03407 5.49522 -4.54268
563 1 -2.7092 -2.43943 2.40158 -4.46146
564 1 -3.87591 -3.73442 4.02445 -4.56688
565 1 -3.75283 -1.26232 7.00123 -4.54639
566 1 -1.29487 -3.64175 7.11071 -4.52025
567 1 -1.54548 -1.08285 3.975 -4.52689
568 1 0.00284203 -4.84 2.40986 -4.54489
569 1 -0.122126 -2.23756 5.50582 -4.52143
570 1 2.58026 -4.85878 5.58368 -4.51427
571 1 2.40491 -2.20176 2.4436 -4.55317
572 1 1.23358 -3.62719 3.97578 -4.52041
573 1 1.16409 -0.812911 7.06271 -4.52668
574 1 3.76089 -3.57428 7.16526 -4.57275
575 1 3.69605 -1.06315 4.13254 -4.55419
576 1 5.03006 -5.03205 2.41458 -4.5505
577 1 5.04993 -2.49854 5.57119 -4.52346
578 1 7.55454 -4.93448 5.5905 -4.52423
579 1 7.54769 -2.2907 2.54285 -4.4998
580 1 6.28688 -3.70929 3.91478 -4.54882
581 1 6.27349 -1.17635 7.12438 -4.57323
582 1 8.85015 -3.72083 7.06255 -4.53313
583 1 8.69369 -1.09443 4.13055 -4.50742
584 1 10.0026 -4.83294 2.38182 -4.45897
585 1 9.97196 -2.27061 5.67158 -4.5294
586 1 12.5912 -4.86444 5.87056 -4.57726
587 1 12.9427 -2.73675 2.92214 -4.28108
588 1 11.192 -3.66651 4.27084 -4.53044
589 1 11.3023 -1.28372 7.33303 -4.55374
590 1 14.1671 -3.67359 7.27677 -4.51873
591 1 13.6119 -1.12626 4.43269 -4.55234
592 1 14.8527 -4.2016 2.92199 -5.01943
593 1 15.2282 -1.99738 5.89043 -4.58216
594 1 17.3079 -4.51374 5.6985 -3.53429
595 1 18.506 -2.60344 1.79191 -4.26582
596 1 16.5129 -2.9779 4.16287 -4.46052
597 1 16.5269 -0.297932 6.84566 -4.34233
598 1 18.6439 -0.983566 7.74192 -4.41464
599 1 19.0984 -0.473971 2.84866 -4.28644
600 1 -19.0383 -0.30156 2.94801 -4.03649
601 1 -17.2886 0.125872 5.68688 -4.47379
602 1 -17.2597 2.35482 3.28677 -4.55745
603 1 -18.9494 1.43024 4.52742 -4.51439
604 1 -18.4822 3.1113 6.31066 -4.44431
605 1 -16.0107 1.18832 7.30442 -4.58401
606 1 -16.6481 3.95319 4.97181 -4.52557
607 1 -15.4046 -0.117252 2.39767 -4.37504
608 1 -15.0079 2.42802 5.60579 -4.49475
609 1 -12.643 -0.0174411 5.55951 -4.51245
610 1 -12.8537 2.54053 2.31629 -4.54658
611 1 -14.0046 1.14383 3.87482 -4.46976
612 1 -13.7474 3.73879 7.07254 -4.51881
613 1 -11.0798 1.22511 6.87014 -4.48672
614 1 -11.4979 3.84861 3.844 -4.59048
615 1 -10.2479 0.076942 2.31846 -4.52397
616 1 -9.96406 2.71086 5.29503 -4.54673
617 1 -7.72142 0.0427245 5.45778 -4.49291
618 1 -7.492 2.53045 2.17081 -4.50675
619 1 -8.81826 1.36194 3.74921 -4.54606
620 1 -8.53499 3.98478 6.68144 -4.50918
621 1 -6.31879 1.2513 6.88107 -4.56277
622 1 -6.12151 3.87472 3.70401 -4.49653
623 1 -5.18819 -0.0545794 2.21331 -4.43879
624 1 -5.1278 2.8061 5.46589 -4.45789
625 1 -2.49661 0.279455 5.51676 -4.45254
626 1 -2.61598 2.74895 2.42915 -4.52099
627 1 -3.9086 1.35104 3.85775 -4.49796
628 1 -3.86752 4.09979 7.06573 -4.48838
629 1 -1.23145 1.4748 7.06366 -4.44915
630 1 -1.24646 3.95681 4.05352 -4.50601
631 1 -0.0869079 0.0504197 2.56117 -4.50856
632 1 0.195394 2.85067 5.53962 -4.54448
633 1 2.55256 0.486699 5.56727 -4.47495
634 1 2.58371 2.8081 2.53788 -4.58455
635 1 1.31235 1.45343 3.94288 -4.53134
636 1 1.58235 4.20896 6.919 -4.47665
637 1 3.78147 1.70862 7.35263 -4.50297
638 1 4.00018 4.08295 3.94176 -4.5281
639 1 4.994 0.114858 2.59387 -4.51679
640 1 5.05373 2.88618 5.68294 -4.51566
641 1 7.48063 0.195201 5.69301 -4.5587
642 1 7.48685 2.64687 2.49978 -4.56096
643 1 6.19982 1.44542 4.16687 -4.52962
644 1 6.42481 4.1798 7.02521 -4.55358
645 1 8.85447 1.32862 7.33747 -4.51606
646 1 8.79686 3.99004 3.98821 -4.46917
647 1 10.1314 -0.00466414 2.63797 -4.57104
648 1 9.91447 2.58806 5.60988 -4.53415
649 1 12.3967 0.276276 6.02833 -4.48639
650 1 12.5036 2.6192 2.60492 -4.57192
651 1 11.3369 1.30005 4.16305 -4.50526
652 1 11.2216 3.90281 7.07718 -4.47003
653 1 13.8688 1.52072 7.50565 -4.51273
654 1 13.8662 3.94869 3.9336 -4.50128
655 1 14.9063 -0.256412 2.56768 -4.50738
656 1 14.9258 2.38334 5.54328 -4.38553
657 1 17.781 -0.0456339 4.85369 -4.5505
658 1 17.0175 1.95138 1.7399 -4.67236
659 1 16.1406 1.24553 3.86418 -4.59186
660 1 16.4202 3.53853 6.99156 -4.30304
661 1 19.0695 1.78208 5.39224 -4.43013
662 1 18.3869 3.56823 2.80648 -4.65382
663 1 19.973 1.82822 3.03457 -4.25646
664 1 -18.9177 5.53541 6.4752 -4.39143
665 1 -17.5696 7.57241 3.02019 -3.58374
666 1 -18.2326 5.49785 3.97099 -4.30985
667 1 -16.7831 6.36243 7.03592 -4.63871
668 1 -16.648 9.40913 4.14188 -4.56165
669 1 -15.6712 5.3548 2.00487 -4.50206
670 1 -15.51 7.76221 5.47943 -4.52359
671 1 -12.9055 5.25272 5.19282 -4.42335
672 1 -12.8568 7.69416 2.24676 -4.53646
673 1 -14.3675 6.5146 3.77852 -4.37354
674 1 -13.9733 8.79647 6.83798 -4.62687
675 1 -11.2981 6.13852 6.83074 -4.51025
676 1 -11.4137 8.51532 3.85939 -4.49814
677 1 -10.2414 5.06765 2.29397 -4.50476
678 1 -9.99212 7.43656 5.46767 -4.55701
679 1 -7.24569 5.35194 5.18378 -4.4998
680 1 -7.6006 7.72174 2.22635 -4.52336
681 1 -8.81935 6.33375 3.76911 -4.57488
682 1 -8.60905 8.99377 6.59842 -4.50845
683 1 -6.22863 6.44966 7.00411 -4.43809
684 1 -6.10833 8.78338 3.5943 -4.50119
685 1 -4.90196 5.16483 2.05778 -4.49382
686 1 -4.95536 7.68578 5.28495 -4.42138
687 1 -2.54103 5.27001 5.57291 -4.51851
688 1 -2.45618 7.71975 2.18691 -4.54276
689 1 -3.58806 6.43759 3.7762 -4.44229
690 1 -3.91169 8.97596 6.98782 -4.43414
691 1 -1.26761 6.6541 7.09153 -4.57449
692 1 -1.31326 9.04589 3.80451 -4.44342
693 1 -0.141997 5.26507 2.46589 -4.51569
694 1 -0.143073 7.88442 5.41577 -4.50062
695 1 2.72713 5.44288 5.39599 -4.50661
696 1 2.52116 7.74093 2.41532 -4.5356
697 1 1.18581 6.4927 3.95933 -4.55971
698 1 1.33993 8.85052 7.0616 -4.47613
699 1 4.0111 6.64179 6.89366 -4.48991
700 1 4.01698 8.90481 3.87678 -4.45817
701 1 5.05745 5.43496 2.48995 -4.48527
702 1 5.44893 8.15881 5.58331 -4.47955
703 1 7.8195 5.39868 5.59977 -4.52609
704 1 7.65383 7.62642 2.28779 -4.41788
705 1 6.4888 6.56298 4.08798 -4.47608
706 1 6.70859 9.2967 7.22266 -4.37693
707 1 9.09796 6.68445 7.17405 -4.42471
708 1 8.89709 8.79881 3.97121 -4.60839
709 1 9.94062 5.09782 2.3273 -4.42837
710 1 10.4469 7.87055 5.45021 -4.33018
711 1 12.5036 5.13399 5.51635 -4.4862
712 1 12.5894 7.2574 2.45794 -4.48071
713 1 11.125 6.2515 3.93496 -4.54184
714 1 11.7275 9.19156 8.01023 -4.43997
715 1 13.7117 6.41776 7.24322 -4.3214
716 1 13.7325 8.18787 4.35763 -4.2784
717 1 15.1708 4.95782 2.24425 -4.47514
718 1 15.2001 7.98862 6.31544 -4.74149
719 1 17.7219 3.78501 5.10057 -4.32171
720 1 18.5452 6.97107 2.50518 -4.32848
721 1 16.3423 6.56919 3.42055 -4.42106
722 1 16.9824 9.34775 7.36129 -4.11708
723 1 18.0707 6.10003 4.87846 -4.23551
724 1 -16.0535 11.0624 5.82661 -3.48117
725 1 -15.352 10.3193 2.20764 -4.43781
726 1 -14.8949 12.5277 4.46553 -4.62964
727 1 -12.4985 9.91028 5.33971 -4.55492
728 1 -12.1297 12.3876 2.20786 -4.18275
729 1 -13.4325 11.0688 3.46585 -4.66921
730 1 -13.0743 14.1041 5.24762 -4.02273
731 1 -11.1268 11.2625 6.6899 -4.61658
732 1 -11.0762 14.001 3.88327 -5.39018
733 1 -10.24 9.77997 2.34934 -4.42295
734 1 -9.74212 12.5039 5.31749 -4.3833
735 1 -7.30206 10.2124 5.05985 -4.54472
736 1 -7.78324 12.5099 2.02675 -4.47301
737 1 -8.83183 11.2154 3.62177 -4.54509
738 1 -8.28725 13.9169 6.60627 -4.6079
739 1 -6.12462 11.5902 6.69051 -4.40941
740 1 -6.40371 13.96 3.35577 -4.6752