ITEM: TIMESTEP
238000
ITEM: NUMBER OF ATOMS
4050
ITEM: BOX BOUNDS ss ss pp
-2.0345764670916289e+01 2.0656397407222329e+01
-2.0600268755847985e+01 2.0582381380993905e+01
-3.2314450000000003e+00 5.7541445000000003e+01
ITEM: ATOMS id type x y z c_peratom
1 1 -11.8631 -15.4059 -1.04159 -3.7987
2 1 -7.30266 -17.7632 -2.77568 -4.22727
3 1 -8.63411 -17.1117 0.791698 -4.604
4 1 -6.73344 -18.5325 0.806123 -3.68912
5 1 -6.05839 -16.2735 -1.59092 -4.76501
6 1 -4.90266 -18.0225 -0.557123 -4.61979
7 1 -2.6026 -17.9958 57.4899 -4.63644
8 1 -4.71216 -19.0777 -2.63564 -3.94746
9 1 -3.87287 -16.9257 1.26018 -4.45429
10 1 -0.469804 -18.997 1.4743 -4.51702
11 1 -1.43932 -16.3888 -1.91474 -4.43109
12 1 0.321364 -19.5228 -1.62759 -4.65779
13 1 -0.128006 -17.5405 -0.427529 -4.50996
14 1 3.07298 -17.8254 57.445 -4.61973
15 1 2.62638 -19.6158 -1.91408 -4.05888
16 1 1.32869 -16.403 1.1065 -4.56009
17 1 3.13228 -19.0361 0.330086 -4.27974
18 1 3.75334 -16.318 -1.7067 -4.65929
19 1 5.13888 -17.7332 -0.454761 -4.47757
20 1 6.73588 -18.1038 -2.21682 -4.28575
21 1 9.47672 -17.3097 0.421447 -4.32096
22 1 6.30868 -16.3333 1.05857 -4.45381
23 1 8.82512 -16.7735 -1.79033 -4.17657
24 1 11.3406 -15.919 0.850077 -3.66164
25 1 -14.5583 -12.6765 -1.21152 -4.25709
26 1 -15.2514 -13.7233 0.762017 -4.32094
27 1 -13.7598 -15.4915 0.277382 -4.3176
28 1 -12.4949 -13.3904 57.2754 -4.48095
29 1 -13.9128 -14.804 -2.06945 -4.44029
30 1 -14.1488 -11.5848 0.812989 -4.28416
31 1 -11.0377 -14.1317 0.992015 -4.83116
32 1 -11.5007 -11.9075 -1.91809 -4.56375
33 1 -10.1534 -15.7261 57.4248 -4.06359
34 1 -9.77635 -12.8962 -0.528933 -4.37893
35 1 -7.59144 -15.2204 -0.110866 -4.58532
36 1 -7.48832 -12.75 -2.98113 -4.52878
37 1 -8.77823 -14.3935 -2.04961 -4.5307
38 1 -8.78614 -11.4388 1.11027 -4.52479
39 1 -6.14419 -14.0579 1.29159 -4.56907
40 1 -6.14162 -11.502 -1.66486 -4.43902
41 1 -4.75783 -15.0409 -3.12646 -4.54244
42 1 -4.84741 -12.7025 -0.180574 -4.53302
43 1 -2.48486 -15.3896 0.0804873 -4.46218
44 1 -2.41251 -12.715 57.4883 -4.51858
45 1 -3.41885 -13.9414 -1.61955 -4.49895
46 1 -3.76677 -11.4325 1.36425 -4.48293
47 1 -1.27239 -13.9725 1.53054 -4.5484
48 1 -1.16138 -11.4606 -1.71263 -4.57953
49 1 0.445764 -15.5718 57.5186 -4.48458
50 1 0.00511728 -12.7583 -0.20748 -4.49509
51 1 2.58317 -14.9564 -0.337232 -4.54033
52 1 2.78313 -12.5892 57.3866 -4.50426
53 1 1.31287 -13.8199 -1.93954 -4.52663
54 1 1.22212 -11.1897 1.165 -4.56571
55 1 3.92861 -13.8371 1.25231 -4.565
56 1 4.04567 -11.2792 -1.74611 -4.55435
57 1 5.12908 -15.007 -3.11672 -4.60488
58 1 5.36808 -12.5364 -0.129658 -4.57414
59 1 8.00198 -15.2789 -0.065076 -4.92288
60 1 7.99462 -12.6196 -3.20082 -4.45567
61 1 6.69629 -13.919 -1.52269 -4.37782
62 1 6.61683 -11.2292 1.22844 -4.54358
63 1 8.95906 -13.8047 1.44684 -4.48169
64 1 8.9555 -11.1088 -1.64878 -4.48961
65 1 10.4069 -15.3846 -3.05793 -4.45045
66 1 10.0634 -12.1415 0.217314 -4.45535
67 1 12.7157 -14.8473 -0.800664 -4.6921
68 1 12.3734 -12.2113 -2.53897 -4.32299
69 1 10.8846 -13.6597 -1.52914 -4.63384
70 1 11.6445 -11.0981 1.67363 -4.59879
71 1 14.0215 -13.1158 0.386157 -4.05941
72 1 14.0897 -11.1949 -1.06975 -5.41873
73 1 15.9117 -12.8871 -1.00548 -4.0592
74 1 16.2969 -10.6425 -0.162732 -4.05812
75 1 -17.3262 -7.66436 56.5691 -4.24937
76 1 -18.769 -6.05912 2.13592 -3.98587
77 1 -16.4919 -9.15234 1.43162 -3.60019
78 1 -16.8835 -6.73323 -2.00898 -4.41776
79 1 -15.5489 -11.2409 -2.88894 -4.17249
80 1 -15.4259 -7.97755 -0.444826 -4.57249
81 1 -12.6083 -10.3259 -0.489602 -4.52797
82 1 -13.07 -7.83115 57.5064 -4.57085
83 1 -14.304 -9.41433 -1.92728 -4.62374
84 1 -14.0445 -6.58619 0.949129 -4.47897
85 1 -11.4773 -8.84872 1.11218 -4.52751
86 1 -11.5858 -6.53102 -1.9289 -4.58528
87 1 -10.2068 -10.3483 57.4883 -4.61473
88 1 -10.1819 -7.59986 -0.276085 -4.52781
89 1 -7.44288 -10.1646 -0.2459 -4.56422
90 1 -7.57489 -7.82566 -3.15126 -4.53831
91 1 -9.00811 -9.10045 -1.68983 -4.59358
92 1 -9.04753 -6.47678 1.49743 -4.56415
93 1 -6.40902 -8.79008 1.21726 -4.47588
94 1 -6.52704 -6.36579 -1.53464 -4.59685
95 1 -5.22681 -10.3047 57.4187 -4.50254
96 1 -4.94456 -7.51387 -0.262904 -4.56593
97 1 -2.60089 -10.2209 -0.325419 -4.49582
98 1 -2.68351 -7.75053 57.377 -4.50387
99 1 -3.93323 -8.9917 -1.88695 -4.56308
100 1 -3.75076 -6.27326 1.39886 -4.4955
101 1 -1.2682 -8.61167 1.1674 -4.45021
102 1 -1.34915 -6.36899 -1.8569 -4.53738
103 1 0.166691 -10.2905 57.4827 -4.46224
104 1 0.0767423 -7.49415 -0.423361 -4.47431
105 1 2.51664 -10.0323 -0.431579 -4.58156
106 1 2.7189 -7.59456 -3.23045 -4.51551
107 1 1.22735 -8.74944 -1.86617 -4.54874
108 1 1.32223 -6.28356 1.19041 -4.54674
109 1 3.97962 -8.63035 1.05634 -4.49372
110 1 3.72178 -6.14706 -1.65967 -4.56252
111 1 5.20084 -10.0034 57.4447 -4.54473
112 1 5.31133 -7.2635 -0.355055 -4.55605
113 1 7.7268 -9.70917 -0.218928 -4.49522
114 1 7.67094 -7.37107 57.4149 -4.54927
115 1 6.39603 -8.63645 -1.82153 -4.52766
116 1 6.6231 -6.14801 1.22172 -4.49653
117 1 8.97743 -8.64705 1.4278 -4.54854
118 1 8.81149 -6.21484 -1.64961 -4.47266
119 1 10.2463 -9.91159 57.5259 -4.53509
120 1 10.2542 -7.21206 -0.00294843 -4.5028
121 1 12.6225 -9.72019 0.082159 -4.37593
122 1 12.8738 -7.49864 57.5466 -4.45216
123 1 11.3128 -8.52721 -1.67703 -4.44445
124 1 11.5811 -6.07391 1.67659 -4.51519
125 1 14.2699 -8.54669 1.3036 -4.60177
126 1 13.9646 -6.05474 -1.56192 -4.60555
127 1 14.9573 -10.2493 -3.06428 -4.36115
128 1 15.4533 -7.5127 -0.454325 -4.71584
129 1 16.5815 -6.75465 57.3241 -4.4158
130 1 16.6118 -9.02409 -1.97545 -4.30306
131 1 17.1859 -6.04329 0.227643 -3.66158
132 1 18.5644 -5.46602 57.3307 -3.83071
133 1 -18.3021 -5.34111 -0.656254 -3.81695
134 1 -18.0115 -2.74763 -2.96859 -4.99239
135 1 -19.4245 -3.26462 -1.09199 -4.32032
136 1 -18.0742 -2.21276 0.503081 -4.633
137 1 -16.9015 -5.00749 1.22129 -4.57885
138 1 -16.6897 -0.914174 -2.05252 -4.57788
139 1 -15.3603 -5.22371 -3.1768 -4.60208
140 1 -15.8564 -2.4527 -0.433545 -4.42679
141 1 -12.9111 -5.16249 -0.507037 -4.58123
142 1 -12.9486 -2.60679 57.3505 -4.50092
143 1 -14.2307 -3.7332 -1.78001 -4.47143
144 1 -14.3326 -1.38539 0.951536 -4.54186
145 1 -11.5029 -4.02494 1.12696 -4.5175
146 1 -11.7076 -1.32822 -1.91233 -4.52182
147 1 -10.2613 -5.24178 57.4461 -4.59845
148 1 -10.46 -2.56744 -0.385684 -4.57306
149 1 -7.81514 -5.08582 -0.0467948 -4.52715
150 1 -8.04856 -2.56447 57.3807 -4.54327
151 1 -9.05943 -3.83624 -1.75516 -4.51989
152 1 -9.13232 -1.3571 1.1613 -4.54769
153 1 -6.28463 -3.87637 1.42717 -4.58085
154 1 -6.57292 -1.42113 -2.00102 -4.49825
155 1 -5.10993 -5.05598 -2.97704 -4.52914
156 1 -5.26322 -2.3611 -0.085483 -4.51154
157 1 -2.63317 -5.01562 -0.176363 -4.53076
158 1 -2.38292 -2.69247 57.4877 -4.52667
159 1 -3.85185 -3.59002 -1.58766 -4.55986
160 1 -3.84238 -0.993801 1.26209 -4.58042
161 1 -1.22262 -3.66976 1.24527 -4.59262
162 1 -1.09863 -1.36358 -1.88247 -4.55144
163 1 0.169432 -5.12859 57.5341 -4.54626
164 1 0.129137 -2.39983 -0.189063 -4.56513
165 1 2.46625 -4.81686 -0.122441 -4.5145
166 1 2.66684 -2.16351 -2.99993 -4.45805
167 1 1.38334 -3.69037 -1.74255 -4.51152
168 1 1.39337 -0.976968 1.28158 -4.5379
169 1 3.83925 -3.73128 1.45377 -4.55682
170 1 3.98131 -1.01403 -1.44324 -4.56451
171 1 5.06422 -4.87608 -3.20345 -4.60236
172 1 5.1095 -2.53283 -0.065163 -4.5463
173 1 7.76124 -4.7156 -0.287329 -4.53151
174 1 7.94592 -2.31391 -3.1623 -4.55158
175 1 6.43662 -3.58004 -1.80726 -4.53612
176 1 6.43723 -1.00145 1.11536 -4.55955
177 1 8.89515 -3.40754 1.39647 -4.54414
178 1 9.17169 -0.873618 -1.6728 -4.52499
179 1 10.0704 -4.94862 -3.20138 -4.51813
180 1 10.211 -2.14529 -0.0662437 -4.5283
181 1 12.6323 -4.80949 -0.056245 -4.5165
182 1 12.5691 -2.38741 -3.16886 -4.47965
183 1 11.2811 -3.62588 -1.61704 -4.52521
184 1 11.3657 -0.941945 1.57705 -4.52862
185 1 14.0227 -3.48286 1.45574 -4.46837
186 1 13.7497 -1.31928 -1.36945 -4.47195
187 1 15.2225 -4.93408 -3.1788 -4.56663
188 1 15.3891 -2.31513 -0.0501775 -4.48254
189 1 18.3023 -4.52285 -1.18743 -4.67123
190 1 17.4914 -2.27448 57.1447 -4.69563
191 1 16.4641 -3.3496 -1.84092 -4.60827
192 1 16.663 -1.23312 1.61543 -4.38154
193 1 19.2243 -2.49865 -0.294668 -4.11396
194 1 18.8965 -0.985531 -2.16749 -3.7787
195 1 -19.9995 -1.44872 -2.45165 -4.38073
196 1 -18.586 0.056754 0.824959 -4.35197
197 1 -18.289 2.41161 -3.2334 -4.27056
198 1 -18.6006 0.327379 -1.72546 -4.33294
199 1 -18.4781 4.85612 1.97028 -4.43267
200 1 -16.6542 1.2723 1.59535 -4.55828
201 1 -16.9047 3.23915 -1.43808 -4.43968
202 1 -15.3707 0.00967444 57.0825 -4.46036
203 1 -15.1431 2.29648 -0.0465054 -4.40415
204 1 -12.9615 0.0121535 -0.352445 -4.58982
205 1 -12.9327 2.62455 57.3959 -4.51418
206 1 -14.1655 1.26194 -1.84626 -4.36538
207 1 -14.2459 4.08411 1.27227 -4.48834
208 1 -11.6058 1.23655 1.15976 -4.55955
209 1 -11.6515 3.81477 -1.64216 -4.5498
210 1 -10.6076 0.065583 57.3447 -4.56191
211 1 -10.1986 2.43267 -0.376602 -4.53998
212 1 -7.84556 -0.138392 -0.428536 -4.52986
213 1 -7.64737 2.60275 -3.20841 -4.58452
214 1 -9.17625 1.14093 -1.95628 -4.5214
215 1 -9.144 3.73072 1.28458 -4.51208
216 1 -6.49693 1.33986 1.09523 -4.47544
217 1 -6.31583 3.98439 -1.78706 -4.55364
218 1 -5.08078 -0.155988 57.4049 -4.57163
219 1 -5.08912 2.56822 -0.435652 -4.54715
220 1 -2.45423 -0.109322 -0.463286 -4.53385
221 1 -2.50166 2.46911 57.4043 -4.56711
222 1 -3.72818 1.2487 -1.82653 -4.55266
223 1 -3.87391 3.81797 1.28528 -4.54826
224 1 -1.29856 1.24578 1.07726 -4.52462
225 1 -1.21893 3.9007 -1.99241 -4.55506
226 1 0.086099 0.0439746 57.3981 -4.55336
227 1 -0.0423979 2.71424 -0.341852 -4.57647
228 1 2.71144 0.397165 -0.103586 -4.56241
229 1 2.61428 2.72688 57.4712 -4.54969
230 1 1.34456 1.40216 -1.8891 -4.54869
231 1 1.34744 4.00881 1.17162 -4.50843
232 1 4.04179 1.77472 1.3846 -4.53846
233 1 3.87236 3.91002 -1.70432 -4.50337
234 1 5.28275 0.106028 -3.09481 -4.50653
235 1 5.22316 2.83446 -0.298456 -4.45348
236 1 7.99539 0.406435 -0.0498485 -4.49089
237 1 7.90218 2.46763 -3.15501 -4.58455
238 1 6.55696 1.32092 -1.59696 -4.56583
239 1 6.44461 4.02473 1.35967 -4.5035
240 1 8.87672 1.67428 1.75778 -4.49207
241 1 8.93321 3.93316 -1.60599 -4.42071
242 1 10.6947 0.269846 -2.9103 -4.46314
243 1 10.2125 2.92143 0.151443 -4.55041
244 1 12.85 0.278455 0.274725 -4.6005
245 1 12.9569 3.10825 -2.64697 -4.27399
246 1 11.6069 1.71327 -1.16941 -4.49202
247 1 11.6759 4.30992 1.38223 -4.5197
248 1 14.1767 1.70284 1.73611 -4.51604
249 1 14.7448 4.50986 -1.62343 -4.88931
250 1 15.0115 0.224716 -2.73464 -4.52222
251 1 15.2793 2.90359 0.0230079 -4.18202
252 1 18.0208 -0.189518 -0.0793955 -4.79784
253 1 17.5262 2.05564 -3.13306 -4.42348
254 1 16.4386 1.32925 -1.11645 -4.31315
255 1 16.8799 4.10798 1.18064 -4.95875
256 1 19.2655 0.901393 1.75907 -4.23992
257 1 19.2688 3.63557 -3.15291 -4.08915
258 1 19.6646 1.33911 56.9986 -3.9065
259 1 -18.1313 4.82509 -0.429497 -3.4412
260 1 -17.3545 7.77916 56.7507 -4.42295
261 1 -17.7222 6.14146 -2.38662 -4.31625
262 1 -16.6002 6.35159 1.93994 -4.48364
263 1 -16.4725 8.88358 -2.12436 -3.71717
264 1 -15.8113 4.65911 -3.12492 -5.25766
265 1 -15.67 7.74573 -0.268834 -4.21076
266 1 -12.9608 5.27402 -0.277006 -4.54062
267 1 -12.9215 7.47327 -3.10356 -4.56365
268 1 -14.4897 6.24777 -1.80102 -4.33809
269 1 -14.13 8.8765 1.23458 -4.4749
270 1 -11.534 6.33012 1.2583 -4.55004
271 1 -11.692 9.00307 -1.68266 -4.57428
272 1 -10.2151 4.9956 -3.18917 -4.59298
273 1 -10.2904 7.71627 -0.286321 -4.56989
274 1 -7.62127 5.08876 -0.16435 -4.48116
275 1 -7.76319 7.50372 57.3852 -4.53627
276 1 -9.0818 6.37389 -1.69418 -4.53434
277 1 -8.91989 8.97354 1.24456 -4.56397
278 1 -6.46341 6.46473 1.17852 -4.5523
279 1 -6.4738 9.07067 -1.94031 -4.56016
280 1 -5.02373 5.13945 57.3453 -4.52964
281 1 -5.26439 7.81203 -0.334402 -4.52912
282 1 -2.48231 4.97279 -0.276021 -4.5327
283 1 -2.54348 7.67281 -3.11992 -4.49135
284 1 -3.88792 6.2916 -1.73362 -4.57406
285 1 -3.88343 8.77704 1.25062 -4.56115
286 1 -1.2588 6.30375 1.27842 -4.57183
287 1 -1.35975 8.81072 -1.58995 -4.50752
288 1 0.362758 5.19322 57.4644 -4.52647
289 1 0.0951214 7.81395 0.0893407 -4.52545
290 1 2.69154 5.28837 -0.305532 -4.5888
291 1 2.66802 7.6802 57.4772 -4.57501
292 1 1.30406 6.65856 -1.68708 -4.50488
293 1 1.42196 9.27904 1.44466 -4.55794
294 1 4.0903 6.52352 1.17379 -4.52481
295 1 3.92052 8.9961 -1.73202 -4.5199
296 1 5.24072 5.18614 -3.14823 -4.5446
297 1 5.25223 7.89191 -0.220106 -4.57402
298 1 7.98253 5.21123 0.000127741 -4.50931
299 1 7.5305 7.51438 57.4304 -4.51996
300 1 6.46602 6.30895 -1.52626 -4.51657
301 1 6.56158 9.3555 1.06599 -4.44888
302 1 9.34337 6.81423 1.17831 -4.43483
303 1 8.79226 9.01714 -1.95951 -4.60701
304 1 10.1582 4.97842 57.4057 -4.52685
305 1 10.4689 8.09229 -0.624337 -4.34335
306 1 12.9775 5.42925 -0.395288 -4.36178
307 1 12.382 7.76725 57.1998 -4.54583
308 1 11.4112 6.39791 -1.9101 -4.59979
309 1 11.8876 9.77094 1.87881 -4.49492
310 1 14.212 6.83225 1.05803 -4.52138
311 1 13.8753 8.6285 -2.01323 -4.26043
312 1 15.0609 5.06967 56.8667 -4.36611
313 1 16.1484 7.87798 0.282595 -4.42891
314 1 18.3854 4.60302 -0.574225 -3.75842
315 1 17.0936 6.38464 57.0071 -4.61766
316 1 16.6276 6.067 -1.35631 -4.34944
317 1 16.9449 8.60938 2.43556 -4.3009
318 1 18.9812 5.18483 1.7281 -4.12173
319 1 -15.8474 12.6577 2.64269 -4.15509
320 1 -15.1574 10.5843 -3.06971 -4.66595
321 1 -14.9415 13.3198 0.402611 -3.99002
322 1 -12.8792 10.3111 -0.0300516 -4.54843
323 1 -12.8765 13.0984 -3.04812 -4.88773
324 1 -14.0372 11.8251 -1.34558 -4.25607
325 1 -13.935 14.0852 2.35993 -4.75337
326 1 -11.5041 11.4003 1.49539 -4.42203
327 1 -11.6958 14.4784 -1.24762 -4.12891
328 1 -10.3631 10.2813 57.527 -4.59707
329 1 -10.5062 12.6547 -0.23302 -4.55869
330 1 -7.70454 10.317 -0.33425 -4.55699
331 1 -7.77518 12.9556 57.3931 -4.48599
332 1 -8.99242 11.5794 -1.76424 -4.51515
333 1 -9.16225 14.0002 1.09976 -4.51119
334 1 -6.27693 11.499 1.20076 -4.57342
335 1 -6.34876 14.1165 -2.00172 -4.51851
336 1 -5.04755 10.2788 57.3997 -4.57325
337 1 -5.18872 12.9621 -0.342581 -4.54294
338 1 -2.61985 10.1734 -0.192059 -4.57545
339 1 -2.56168 12.763 -3.18113 -4.55583
340 1 -3.79486 11.5494 -1.6995 -4.56554
341 1 -3.84002 14.0457 1.28073 -4.47278
342 1 -1.35888 11.2892 1.39225 -4.52556
343 1 -1.29164 14.0228 -1.57831 -4.56906
344 1 0.0936941 10.128 -3.04399 -4.51513
345 1 -0.1421 12.6328 -0.0369542 -4.58259
346 1 2.73284 10.3139 -0.179947 -4.55314
347 1 2.41534 12.7325 57.4821 -4.46327
348 1 1.27926 11.5006 -1.48182 -4.52547
349 1 1.17098 14 1.4039 -4.58041
350 1 3.93962 11.7694 1.29371 -4.57536
351 1 3.75046 13.937 -1.73737 -4.45181
352 1 5.03173 10.2421 57.3654 -4.49132
353 1 5.27293 13.1128 -0.160647 -4.34743
354 1 7.84387 10.5193 -0.572861 -4.34945
355 1 7.37415 12.7862 57.2705 -4.39744
356 1 6.17355 11.6445 -1.81452 -4.53315
357 1 6.2982 14.5653 1.62797 -4.52392
358 1 9.50359 12.5181 1.84458 -4.4276
359 1 8.60145 14.0498 -1.97852 -4.77624
360 1 9.80576 10.449 57.1777 -4.37831
361 1 9.60029 12.2325 -0.6122 -4.67689
362 1 12.3393 9.71216 -0.529295 -4.87966
363 1 12.8385 12.3005 57.0946 -4.29351
364 1 11.3439 11.3667 -1.94872 -4.66903
365 1 11.0096 14.206 2.12932 -4.50716
366 1 13.7851 11.0608 2.23051 -4.5196
367 1 13.1718 13.0621 -1.43841 -4.26485
368 1 15.4537 9.64939 57.2712 -4.15253
369 1 14.0459 11.3978 -0.0578677 -4.39906
370 1 15.6809 9.84923 -1.02789 -4.31973
371 1 -13.5384 15.2342 0.324898 -4.08978
372 1 -12.5903 16.057 2.41179 -4.0951
373 1 -9.66439 15.5046 57.0191 -4.33552
374 1 -8.10679 15.0895 -0.677896 -4.52829
375 1 -8.51476 17.5683 57.1052 -4.44647
376 1 -9.48391 16.8012 -1.64492 -4.44147
377 1 -6.56809 16.1152 0.904429 -4.7823
378 1 -7.57113 18.258 -1.68658 -3.58131
379 1 -5.11163 15.5492 57.4337 -4.53839
380 1 -5.60948 17.8354 -0.31481 -4.70623
381 1 -2.79155 15.3823 -0.315588 -4.56842
382 1 -2.60432 18.0695 57.5095 -4.57928
383 1 -3.93259 16.8216 -1.68307 -4.46372
384 1 -5.2822 19.022 1.66748 -4.03782
385 1 -1.73247 16.6429 1.37008 -4.53409
386 1 -0.834171 19.0538 -1.95333 -3.67428
387 1 0.0080093 15.2516 -3.15474 -4.52766
388 1 -0.170582 17.6608 -0.063284 -4.72495
389 1 2.51528 15.1095 -0.0673704 -4.49298
390 1 2.5986 18.1807 -2.52594 -4.43513
391 1 1.25877 16.4483 -1.48225 -4.59775
392 1 1.0149 19.0888 1.29061 -4.43886
393 1 3.43505 16.5498 1.54072 -4.55913
394 1 2.74755 19.5399 -0.629883 -4.2703
395 1 4.72806 15.3369 57.4146 -4.47402
396 1 4.39252 18.0036 0.0788323 -4.33818
397 1 7.50092 15.9394 -0.990554 -4.37988
398 1 8.87533 17.3479 -2.28392 -4.34678
399 1 5.7597 16.936 -2.03775 -4.25613
400 1 5.15989 19.1433 1.96114 -3.79966
401 1 7.97579 16.0846 1.47373 -4.36966
402 1 9.88639 14.6782 56.8655 -4.48326
403 1 11.2372 14.0822 -0.275691 -4.24927
404 1 10.6109 15.7282 -2.01651 -4.24199
405 1 1.24084 20.1295 -2.3729 -4.39236
406 1 -12.1534 -16.032 2.08073 -4.20196
407 1 -7.6317 -17.7992 2.84956 -3.77173
408 1 -9.2588 -16.4945 7.05077 -3.62874
409 1 -6.44738 -18.8297 7.96084 -4.08007
410 1 -6.29384 -16.5801 4.26399 -4.64326
411 1 -5.36961 -17.9282 5.98632 -4.61074
412 1 -2.36369 -17.9938 2.77371 -4.38898
413 1 -3.45637 -18.8208 4.95093 -3.53007
414 1 -3.81432 -16.563 7.20613 -4.51889
415 1 -1.86273 -19.1067 6.70244 -3.96781
416 1 -1.33445 -16.5335 4.26023 -4.6426
417 1 1.19415 -20.362 0.482023 -3.87915
418 1 -0.112388 -18.0018 5.56379 -4.63036
419 1 2.70553 -17.7638 2.41422 -4.50978
420 1 0.850908 -18.7217 3.39755 -3.68183
421 1 1.30446 -16.5498 6.92467 -4.44091
422 1 4.35165 -18.9091 7.84242 -4.43958
423 1 3.7348 -16.5914 4.27565 -4.42914
424 1 5.26302 -17.6651 5.8323 -4.47111
425 1 7.87295 -17.7693 2.19354 -4.40323
426 1 7.1988 -18.255 4.41141 -3.4264
427 1 6.36791 -16.258 7.35935 -4.4681
428 1 9.10604 -16.936 4.15522 -4.33962
429 1 12.9157 -14.8232 8.31682 -4.44861
430 1 -17.4296 -9.80479 4.6986 -4.30241
431 1 -15.9871 -11.8059 4.68002 -4.15557
432 1 -12.7131 -14.5924 3.88343 -4.20963
433 1 -12.5781 -12.7543 2.27991 -4.80001
434 1 -14.8418 -13.5892 3.15873 -4.0519
435 1 -14.4382 -11.4418 6.48061 -4.65093
436 1 -11.866 -13.8806 6.04644 -4.47537
437 1 -11.58 -11.1263 3.89976 -4.39102
438 1 -9.80247 -15.6217 2.35865 -4.19753
439 1 -10.2586 -12.366 5.40615 -4.56623
440 1 -7.81612 -15.3377 5.54622 -4.67885
441 1 -7.4903 -12.7276 2.73967 -4.61591
442 1 -8.99723 -13.9637 3.96274 -4.49074
443 1 -9.12705 -11.4583 7.39624 -4.4127
444 1 -6.60438 -13.929 7.01613 -4.50911
445 1 -6.37984 -11.2135 4.27304 -4.59128
446 1 -4.87764 -15.4169 2.76854 -4.52794
447 1 -4.94505 -12.5039 5.72645 -4.55155
448 1 -2.39692 -15.1843 5.87259 -4.54602
449 1 -2.48714 -12.5326 2.83113 -4.55216
450 1 -3.73259 -13.9501 4.27585 -4.57781
451 1 -3.7998 -11.3029 7.44142 -4.49411
452 1 -1.3289 -13.8174 7.43332 -4.55776
453 1 -1.1685 -11.1549 4.26159 -4.54569
454 1 0.119004 -15.2822 2.88018 -4.61203
455 1 -0.0412123 -12.5923 5.8231 -4.56315
456 1 2.66821 -15.149 5.7498 -4.56566
457 1 2.51429 -12.5208 2.61049 -4.55633
458 1 1.35054 -13.8003 4.29048 -4.57464
459 1 1.21832 -11.1957 7.28419 -4.53362
460 1 3.7751 -13.839 7.33959 -4.45356
461 1 3.95209 -11.5051 4.29304 -4.49622
462 1 5.103 -15.2158 2.8903 -4.52515
463 1 5.40048 -12.8059 5.79748 -4.51234
464 1 7.99634 -15.5452 5.75008 -4.43701
465 1 7.66412 -12.5126 2.87973 -4.54942
466 1 6.68944 -14.1379 4.28581 -4.56826
467 1 6.60005 -11.5918 7.40372 -4.5339
468 1 9.17202 -13.9643 7.27152 -4.40886
469 1 9.1737 -11.3272 4.31242 -4.62042
470 1 10.327 -15.1891 2.78726 -4.50298
471 1 10.5942 -12.6167 5.64222 -4.56426
472 1 13.356 -14.3776 5.98673 -3.69926
473 1 13.3129 -12.6195 2.59435 -4.44863
474 1 11.8822 -13.9194 4.13166 -4.52991
475 1 11.8584 -11.1305 6.99959 -4.39429
476 1 13.2266 -12.4542 8.35075 -4.6725
477 1 14.6268 -11.1967 3.9654 -4.47157
478 1 15.0893 -12.6958 5.79785 -3.60606
479 1 15.4597 -12.3295 8.05808 -4.51365
480 1 -17.7566 -7.99149 3.01118 -4.60104
481 1 -19.0457 -4.7414 8.48046 -4.31961
482 1 -16.8102 -8.70514 6.71244 -4.57096
483 1 -16.3743 -6.53639 4.2368 -4.65847
484 1 -15.3756 -9.95549 3.33109 -4.59341
485 1 -15.0697 -7.3479 5.99188 -4.62721
486 1 -12.6387 -10.1661 5.87531 -4.47158
487 1 -12.7419 -7.67138 2.65312 -4.37325
488 1 -13.8509 -8.67758 4.5016 -4.60417
489 1 -13.9292 -6.08604 7.576 -4.50319
490 1 -11.807 -8.76965 7.62423 -4.44602
491 1 -11.5831 -6.27232 4.42344 -4.52715
492 1 -9.98834 -10.034 2.55621 -4.56497
493 1 -10.4317 -7.72108 5.90445 -4.4675
494 1 -7.8132 -10.1116 5.80147 -4.52591
495 1 -7.49328 -7.60154 2.8574 -4.5063
496 1 -9.04439 -8.73355 4.24538 -4.50125
497 1 -9.05603 -6.42148 7.43656 -4.55012
498 1 -6.39765 -8.96554 7.43489 -4.555
499 1 -6.40522 -6.19503 4.45204 -4.53873
500 1 -4.98425 -9.93509 2.77795 -4.55458
501 1 -5.03634 -7.53553 5.93118 -4.57829
502 1 -2.5743 -10.0894 5.89832 -4.52227
503 1 -2.47998 -7.53688 2.96837 -4.54049
504 1 -3.8032 -8.79165 4.41568 -4.52106
505 1 -3.69946 -6.24001 7.42276 -4.53274
506 1 -1.24608 -8.83131 7.38912 -4.55743
507 1 -1.10092 -6.12107 4.25718 -4.56786
508 1 -0.0107319 -9.77734 2.65903 -4.51072
509 1 -0.0338768 -7.35267 5.9704 -4.53626
510 1 2.69236 -10.114 5.60606 -4.53028
511 1 2.68507 -7.56781 2.68643 -4.52798
512 1 1.35074 -8.56582 4.34183 -4.49977
513 1 1.44069 -6.05841 7.37052 -4.58099
514 1 3.94787 -8.90572 7.25121 -4.55352
515 1 3.87063 -6.2053 4.22447 -4.55417
516 1 5.07264 -10.0538 2.70848 -4.50533
517 1 5.20988 -7.45662 5.84793 -4.58305
518 1 7.78083 -10.2752 5.95721 -4.56039
519 1 7.72706 -7.34225 2.99643 -4.56667
520 1 6.5212 -8.87544 4.41044 -4.51014
521 1 6.19105 -6.09364 7.43986 -4.53637
522 1 8.87299 -8.8623 7.50855 -4.56921
523 1 9.10216 -6.05674 4.44018 -4.55659
524 1 10.3795 -9.76124 3.03007 -4.57026
525 1 10.2602 -7.57252 5.947 -4.52909
526 1 13.304 -10.0176 5.69685 -4.52721
527 1 13.0268 -7.34789 2.96384 -4.46268
528 1 11.8111 -8.65853 4.47375 -4.59752
529 1 11.3673 -6.2221 7.59974 -4.64436
530 1 14.4002 -8.46039 7.09922 -4.40577
531 1 13.9664 -6.15598 4.7157 -4.57062
532 1 15.8826 -9.90521 2.23821 -4.38098
533 1 15.7399 -7.14874 5.81107 -4.62432
534 1 17.1132 -6.0736 2.55919 -4.76289
535 1 16.2612 -8.0024 3.70332 -3.5468
536 1 16.8547 -6.09199 7.60426 -4.03867
537 1 18.3691 -4.40983 3.56051 -4.36883
538 1 -17.9544 -5.24935 5.45601 -4.62996
539 1 -17.4109 -3.20149 2.51321 -4.32257
540 1 -19.0891 -4.24065 3.63798 -4.48892
541 1 -19.2736 -2.02467 4.77779 -3.99523
542 1 -16.3702 -3.85357 6.61055 -4.58017
543 1 -17.1214 -1.16603 3.91377 -5.32912
544 1 -15.1132 -5.4163 2.76439 -4.38088
545 1 -15.3861 -2.08472 5.37435 -4.23435
546 1 -12.8712 -4.79856 5.75119 -4.49385
547 1 -12.9688 -2.58297 2.44614 -4.51892
548 1 -14.2401 -3.67757 4.13509 -4.50593
549 1 -14.0428 -1.30523 7.26261 -4.47109
550 1 -11.3905 -3.77404 7.39541 -4.5488
551 1 -11.6642 -1.45445 4.21177 -4.4624
552 1 -10.3116 -5.06134 2.88506 -4.49469
553 1 -10.2269 -2.39578 5.79572 -4.53377
554 1 -7.67587 -4.98907 6.13303 -4.55272
555 1 -7.76531 -2.53752 2.72721 -4.54922
556 1 -8.97063 -3.80181 4.51731 -4.48579
557 1 -9.07445 -1.19563 7.43596 -4.52151
558 1 -6.12061 -3.66988 7.40412 -4.5378
559 1 -6.3703 -1.32283 4.10923 -4.54937
560 1 -5.003 -5.07944 2.92081 -4.5135
561 1 -5.0695 -2.47306 5.653 -4.45913
562 1 -2.50209 -5.02637 5.7231 -4.52531
563 1 -2.63919 -2.4364 2.65504 -4.56729
564 1 -3.76996 -3.75851 4.27376 -4.53575
565 1 -3.8377 -1.16909 7.07924 -4.54676
566 1 -1.20952 -3.73367 7.29078 -4.52389
567 1 -1.52494 -1.02054 4.16621 -4.52977
568 1 0.161214 -4.80919 2.71152 -4.55644
569 1 -0.302244 -2.32433 5.70406 -4.54375
570 1 2.59113 -4.7776 5.68959 -4.51061
571 1 2.60627 -2.17615 2.80103 -4.57943
572 1 1.24946 -3.45073 4.30207 -4.58976
573 1 1.10769 -1.18089 7.22286 -4.51222
574 1 3.65127 -3.60952 7.42463 -4.53512
575 1 4.10381 -0.951028 4.33832 -4.50255
576 1 5.25674 -5.00903 2.75659 -4.57629
577 1 5.08953 -2.428 5.86863 -4.51897
578 1 7.64839 -4.914 5.94158 -4.55988
579 1 7.63607 -2.05337 2.88498 -4.45659
580 1 6.39235 -3.64225 4.40286 -4.50986
581 1 6.21175 -1.07164 7.39947 -4.57063
582 1 8.78546 -3.61743 7.60061 -4.61209
583 1 9.08732 -0.97801 4.62819 -4.50043
584 1 10.1869 -4.71086 2.87483 -4.5186
585 1 10.2267 -2.30008 6.23119 -4.58701
586 1 12.7152 -4.80776 6.19698 -4.54022
587 1 12.7608 -2.12103 3.11664 -4.51885
588 1 11.4568 -3.58459 4.56901 -4.53641
589 1 11.4622 -1.02975 7.71734 -4.4817
590 1 14.0928 -3.55556 7.62517 -4.5872
591 1 14.0929 -1.08961 4.69064 -4.55355
592 1 15.2338 -4.84658 3.13117 -4.61633
593 1 15.4732 -2.22078 6.30236 -4.43378
594 1 17.982 -4.81998 5.98451 -3.54182
595 1 18.5806 -2.54756 1.98834 -4.29576
596 1 16.5058 -3.5377 4.58521 -4.52958
597 1 16.8928 -0.619193 7.46922 -4.38845
598 1 18.9487 -1.16789 8.39013 -4.38895
599 1 19.2387 -0.677225 3.52146 -4.30516
600 1 -19.2946 -0.250166 3.13171 -4.0862
601 1 -17.5064 0.431838 5.8302 -4.4383
602 1 -17.7173 2.95731 3.04416 -4.49363
603 1 -19.058 1.73385 4.58308 -4.47304
604 1 -18.6086 3.35229 6.46236 -4.22509
605 1 -16.1268 1.29878 7.48866 -4.57103
606 1 -16.8617 4.10618 4.8681 -4.98137
607 1 -15.2916 -0.12389 2.7727 -4.34906
608 1 -15.1817 2.58215 5.8087 -4.37042
609 1 -12.6583 -0.0258467 5.83 -4.56283
610 1 -12.8922 2.62896 2.65401 -4.5629
611 1 -14.0068 1.25852 4.26598 -4.51342
612 1 -14.1747 4.07993 7.36937 -4.5695
613 1 -11.6062 1.55131 7.26421 -4.54979
614 1 -11.821 3.89909 4.32632 -4.56032
615 1 -10.3956 -0.138761 2.71597 -4.54266
616 1 -10.2753 2.72191 5.66031 -4.55166
617 1 -7.65224 -0.13393 5.71714 -4.56634
618 1 -7.72627 2.52838 2.75447 -4.59765
619 1 -8.97313 1.19355 4.32726 -4.52708
620 1 -9.12509 3.80125 7.41116 -4.53429
621 1 -6.35416 1.25105 7.13653 -4.56162
622 1 -6.43611 3.93278 4.2014 -4.55717
623 1 -5.23287 0.209864 2.65941 -4.50961
624 1 -5.15334 2.61804 5.77036 -4.53178
625 1 -2.40778 0.385061 5.94783 -4.47573
626 1 -2.47374 2.56176 2.76212 -4.5014
627 1 -3.81913 1.27792 4.33383 -4.52218
628 1 -3.92526 3.95617 7.47436 -4.539
629 1 -1.14833 1.5426 7.51093 -4.53501
630 1 -1.27268 3.71966 4.34754 -4.4926
631 1 0.0189911 0.0937139 2.78714 -4.5185
632 1 0.147183 2.72809 5.91031 -4.54043
633 1 2.61435 -0.03437 5.89866 -4.51784
634 1 2.39571 2.78653 2.95135 -4.50524
635 1 1.19528 1.29901 4.37122 -4.50762
636 1 1.26562 4.21534 7.32474 -4.4696
637 1 3.66146 1.48403 7.33969 -4.59573
638 1 3.77236 4.06048 4.38228 -4.58363
639 1 5.32307 0.282001 2.72182 -4.48404
640 1 5.12195 2.75397 5.93462 -4.56243
641 1 7.72809 0.283012 6.17601 -4.557
642 1 7.56097 2.91055 3.23634 -4.53658
643 1 6.36499 1.4492 4.54538 -4.52881
644 1 6.51763 3.94297 7.47713 -4.57063
645 1 8.91462 1.5593 7.61771 -4.50314
646 1 8.95035 4.18809 4.61411 -4.50683
647 1 10.3007 0.435752 3.30618 -4.55389
648 1 10.3302 2.94524 6.20837 -4.54294
649 1 12.6425 0.283845 5.88592 -4.49094
650 1 12.857 3.12143 3.02507 -4.56636
651 1 11.607 1.93267 4.57119 -4.52582
652 1 11.8253 4.17509 7.60956 -4.59385
653 1 14.1145 1.41985 7.43476 -4.55338
654 1 14.1858 4.43106 4.44273 -4.49897
655 1 15.3 0.102499 3.12255 -4.50955
656 1 15.1947 2.91922 5.95146 -4.50632
657 1 17.971 0.163745 5.39718 -4.57813
658 1 17.7978 2.41496 2.62749 -4.54113
659 1 16.5793 1.70265 4.44344 -4.60734
660 1 16.8335 3.81066 7.41079 -4.36005
661 1 19.5002 1.77438 6.04209 -4.437
662 1 19.5744 3.5373 3.44275 -4.51781
663 1 20.5064 1.34281 3.88936 -4.18721
664 1 -18.877 5.71687 6.73035 -4.30785
665 1 -17.5657 7.76489 3.62884 -3.65606
666 1 -18.5651 5.75959 4.32233 -4.24253
667 1 -16.8251 6.52315 7.11123 -4.6172
668 1 -16.6269 9.60643 4.7124 -4.57284
669 1 -15.2674 5.06686 3.25716 -4.41865
670 1 -15.3313 8.02444 5.79344 -4.52172
671 1 -12.9782 5.44142 5.78577 -4.56542
672 1 -12.5749 7.81139 2.7096 -4.52195
673 1 -14.1092 6.84304 4.2515 -4.56615
674 1 -14.1183 9.12599 7.43265 -4.63697
675 1 -11.5493 6.52452 7.28649 -4.5352
676 1 -11.1857 8.88715 4.31057 -4.51632
677 1 -10.2515 5.06478 2.87763 -4.55623
678 1 -9.93776 7.5712 5.87011 -4.53153
679 1 -7.8317 5.03768 5.83986 -4.51956
680 1 -7.61859 7.73268 2.76232 -4.55398
681 1 -8.83043 6.37766 4.22924 -4.50175
682 1 -8.93708 9.21669 7.36644 -4.48597
683 1 -6.64079 6.46544 7.38249 -4.55112
684 1 -6.21897 9.0449 4.20415 -4.50582
685 1 -5.07733 5.23245 2.72822 -4.53355
686 1 -5.30792 7.68829 5.94735 -4.52397
687 1 -2.43615 5.06441 6.01135 -4.54144
688 1 -2.53769 7.55612 2.83544 -4.5195
689 1 -3.86049 6.37321 4.45604 -4.50911
690 1 -3.95207 8.8479 7.538 -4.59246
691 1 -1.13291 6.51407 7.41378 -4.52125
692 1 -1.49459 8.94864 4.46287 -4.53443
693 1 0.0213818 5.12388 2.88671 -4.57997
694 1 -0.0425075 7.75553 5.75161 -4.48686
695 1 2.63786 5.47093 5.85564 -4.59826
696 1 2.76104 7.75679 2.67824 -4.57472
697 1 1.3502 6.55889 4.18036 -4.53635
698 1 0.839059 8.98103 7.52406 -4.51279
699 1 4.04439 6.7544 7.32881 -4.52636
700 1 3.85778 9.22938 4.36547 -4.42853
701 1 5.14978 5.33138 2.89284 -4.53002
702 1 5.25551 8.11358 5.86679 -4.56242
703 1 7.68866 5.54939 6.11039 -4.57515
704 1 7.69338 7.86681 2.64634 -4.46131
705 1 6.44062 6.62115 4.35787 -4.4655
706 1 6.55587 9.34334 7.46815 -4.43121
707 1 9.23408 6.67626 7.4777 -4.42871
708 1 8.97052 8.98813 4.33816 -4.60224
709 1 10.277 5.51585 2.90621 -4.39918
710 1 10.4769 8.23804 5.95557 -4.31375
711 1 12.8934 5.60653 5.98292 -4.48188
712 1 12.7073 7.79635 2.83748 -4.42317
713 1 11.3661 6.66136 4.57872 -4.48511
714 1 11.9357 9.46926 8.55721 -4.45937
715 1 14.1282 6.6013 7.70016 -4.37611
716 1 13.8281 8.64371 4.71613 -4.27349
717 1 15.4752 5.44898 2.61817 -4.39165
718 1 15.4581 8.29148 6.60358 -4.72097
719 1 18.4921 3.97006 5.51507 -4.28413
720 1 18.8652 7.14054 3.1664 -4.25096
721 1 16.7599 6.88196 4.0294 -4.43245
722 1 17.0461 9.6878 7.91691 -4.05048
723 1 18.666 6.32642 5.44464 -4.24541
724 1 -16.1893 11.3601 6.37934 -3.76339
725 1 -15.0571 10.3836 2.8571 -4.45353
726 1 -15.3608 13.0309 5.02234 -4.46045
727 1 -12.4256 10.1126 6.08381 -4.48798
728 1 -12.3498 12.612 3.37377 -4.17384
729 1 -13.8019 11.312 4.60759 -4.75636
730 1 -13.444 14.2535 6.06015 -4.07533
731 1 -11.401 11.8072 7.38961 -4.59979
732 1 -11.2492 14.2164 4.88347 -5.4174
733 1 -10.0021 10.3694 2.86205 -4.55593
734 1 -9.72453 12.7576 6.04832 -4.36368
735 1 -7.56475 10.2057 5.85981 -4.47939
736 1 -7.75982 12.7775 2.53841 -4.4767
737 1 -8.58369 11.6049 4.28282 -4.42028
738 1 -8.51874 14.3107 7.41264 -4.60355
739 1 -6.4128 11.635 7.30479 -4.48128
740 1 -6.44475 14.209 3.98655 -4.62085
741 1 -4.94149 10.3025 2.66114 -4.51452
742 1 -5.30337 12.8844 5.65712 -4.51758