ITEM: TIMESTEP
342000
ITEM: NUMBER OF ATOMS
4050
ITEM: BOX BOUNDS ss ss pp
-2.0671299553389701e+01 2.0478233520973536e+01
-2.0147702490499597e+01 2.0039151458607869e+01
-4.6435050000000011e+00 5.8953505000000000e+01
ITEM: ATOMS id type x y z c_peratom
1 1 -11.5179 -15.1121 -2.60325 -3.6745
2 1 -6.98466 -17.7198 -4.20936 -4.30031
3 1 -8.64648 -16.791 -0.47791 -4.61225
4 1 -6.70294 -18.2957 -0.906843 -3.64474
5 1 -5.93664 -16.1463 -3.04304 -4.6615
6 1 -4.67783 -17.7345 -1.92807 -4.53191
7 1 -2.31708 -17.8745 58.4888 -4.60557
8 1 -4.35901 -18.7934 -4.27487 -3.97402
9 1 -3.55228 -16.5366 -0.152919 -4.38853
10 1 -0.631802 -19.0019 0.1848 -4.28066
11 1 -1.63697 -16.3261 -3.4373 -4.46111
12 1 0.302796 -19.0161 -3.13654 -4.10559
13 1 -0.505863 -17.4512 -1.57412 -4.53996
14 1 3.0671 -17.5918 -4.55308 -4.55471
15 1 2.57316 -19.4304 -3.11897 -4.34324
16 1 1.02094 -16.0937 -0.304911 -4.56645
17 1 3.1125 -18.7883 -0.971187 -4.1833
18 1 3.58801 -16.2549 -2.7597 -4.61937
19 1 5.17687 -17.5973 -1.7159 -4.44568
20 1 6.76284 -17.7917 -3.52627 -4.3176
21 1 9.48586 -16.9181 -0.789197 -3.85144
22 1 6.0677 -16.1276 -0.0706743 -4.61489
23 1 8.37147 -16.2911 -2.77316 -4.48214
24 1 10.5817 -15.0779 0.108339 -4.67111
25 1 -14.2718 -12.4271 -2.4854 -3.9675
26 1 -14.8396 -13.616 -0.575782 -4.36287
27 1 -13.2051 -15.2943 -1.07792 -4.34842
28 1 -11.8321 -12.7913 58.4132 -4.58189
29 1 -13.149 -14.0661 -3.77821 -4.09876
30 1 -13.6482 -11.4963 -0.403055 -4.25911
31 1 -11.1638 -13.9287 -0.520838 -5.27047
32 1 -11.2905 -11.2442 -3.44695 -4.45856
33 1 -9.57071 -15.1568 58.7448 -3.907
34 1 -9.84322 -12.476 -1.86586 -4.27661
35 1 -7.23087 -15.1502 -1.39733 -4.55316
36 1 -7.06469 -12.6344 -4.30403 -4.47898
37 1 -8.61109 -14.0228 -3.10036 -4.62182
38 1 -8.73142 -11.4715 0.0273414 -4.49928
39 1 -6.00612 -13.8564 0.159618 -4.54117
40 1 -5.95621 -11.052 -2.74164 -4.49644
41 1 -4.5866 -15.2125 58.8931 -4.49384
42 1 -4.72819 -12.4675 -1.32836 -4.51956
43 1 -2.54743 -15.016 -1.58952 -4.41873
44 1 -2.22464 -12.5017 -4.76276 -4.52276
45 1 -3.64353 -13.6562 -3.1859 -4.48725
46 1 -3.40418 -11.0643 0.148639 -4.52655
47 1 -1.16107 -13.8257 0.023097 -4.4801
48 1 -1.17103 -11.3132 -2.97586 -4.45407
49 1 0.160788 -15.364 -4.56469 -4.61704
50 1 -0.0202777 -12.4791 -1.39273 -4.39715
51 1 2.31727 -14.6981 -1.57887 -4.53668
52 1 2.65642 -12.5393 58.8283 -4.551
53 1 1.10875 -13.6438 -3.27108 -4.45946
54 1 1.19955 -10.9807 0.109937 -4.52682
55 1 3.84786 -13.5786 -0.0801298 -4.51558
56 1 3.72413 -11.1481 -3.0632 -4.5337
57 1 4.8699 -14.9656 -4.32057 -4.64764
58 1 5.1041 -12.2659 -1.62518 -4.51321
59 1 7.43688 -14.7948 -1.37492 -4.65955
60 1 8.01366 -12.6606 58.9785 -4.39133
61 1 6.34742 -13.6223 -3.18043 -4.50757
62 1 6.09507 -10.9502 0.17314 -4.53238
63 1 8.77712 -13.4705 0.0297152 -4.57501
64 1 8.25821 -11.0834 -2.88521 -4.4456
65 1 10.0596 -15.4588 -4.21757 -4.14289
66 1 9.87056 -11.9359 -1.35161 -4.37708
67 1 12.1779 -14.2368 -1.52592 -4.28454
68 1 11.6845 -11.4174 -4.1982 -4.38758
69 1 10.6716 -13.357 -3.10903 -4.91926
70 1 11.3011 -11.1418 0.505335 -4.52454
71 1 13.9592 -12.8983 -0.619119 -4.08169
72 1 13.8111 -10.891 -1.9373 -4.92959
73 1 15.7048 -12.3177 -2.27448 -4.09844
74 1 15.969 -10.1792 -1.257 -4.02158
75 1 -17.3344 -7.7628 58.2167 -4.23887
76 1 -18.4426 -6.013 1.00716 -3.97331
77 1 -15.996 -8.60175 0.272941 -3.55032
78 1 -16.6436 -6.45448 -3.33901 -4.37698
79 1 -14.3656 -10.3646 59.0652 -3.91863
80 1 -15.2475 -7.59652 -1.66131 -4.47306
81 1 -12.3051 -10.0673 -1.72714 -4.45883
82 1 -12.467 -7.44111 59.0678 -4.49921
83 1 -13.7221 -8.68377 -3.08031 -4.59837
84 1 -13.683 -6.46499 -0.162597 -4.43109
85 1 -11.0542 -8.90184 -0.152839 -4.46778
86 1 -11.1578 -6.07026 -3.14805 -4.57335
87 1 -9.70657 -10.0393 -4.72061 -4.60284
88 1 -9.95708 -7.35256 -1.47875 -4.52453
89 1 -7.51333 -9.95486 -1.33097 -4.57342
90 1 -7.34908 -7.58825 59.0444 -4.4911
91 1 -8.6854 -8.75061 -2.99392 -4.52648
92 1 -8.6858 -6.17681 0.145986 -4.52333
93 1 -6.15067 -8.80973 0.175319 -4.54832
94 1 -6.30068 -6.11421 -3.03401 -4.52867
95 1 -4.91542 -9.97213 -4.47162 -4.38547
96 1 -4.99807 -7.35969 -1.40288 -4.55404
97 1 -2.16657 -9.80084 -1.41147 -4.51697
98 1 -2.34045 -7.39562 -4.51649 -4.49332
99 1 -3.55658 -8.62885 -2.96849 -4.53713
100 1 -3.6428 -6.03609 -0.00342832 -4.51131
101 1 -1.02254 -8.5137 0.154088 -4.46666
102 1 -1.12937 -6.07809 -2.99708 -4.5398
103 1 -0.0309878 -9.90308 -4.46751 -4.49885
104 1 0.212608 -7.19631 -1.45024 -4.48429
105 1 2.52824 -9.79649 -1.42291 -4.51942
106 1 2.90186 -7.39501 -4.7089 -4.49868
107 1 1.43771 -8.45242 -3.11114 -4.52912
108 1 1.29431 -5.91175 0.233499 -4.44451
109 1 3.7125 -8.41486 0.0675995 -4.46678
110 1 3.944 -5.98381 -3.08979 -4.47069
111 1 5.10743 -9.86067 -4.54938 -4.48674
112 1 5.08466 -7.1134 -1.36327 -4.46446
113 1 7.45313 -9.49998 -1.15133 -4.42974
114 1 7.62541 -7.46836 -4.54078 -4.49854
115 1 6.20127 -8.47742 -2.91683 -4.45278
116 1 6.19412 -5.82395 0.360597 -4.45943
117 1 8.64653 -8.43594 0.590108 -4.49377
118 1 8.62726 -6.04486 -2.8458 -4.41905
119 1 9.93928 -9.82193 -3.95443 -4.45457
120 1 9.82486 -7.00808 -1.01606 -4.48049
121 1 12.3565 -9.46577 -0.729322 -4.45245
122 1 12.3222 -7.31187 -4.35482 -4.46323
123 1 11.039 -8.48949 -2.55388 -4.36371
124 1 11.4212 -5.99266 0.467738 -4.419
125 1 13.9336 -8.27399 0.425717 -4.56891
126 1 13.6496 -5.83997 -3.06467 -4.54891
127 1 14.4113 -9.62578 -4.01577 -4.46605
128 1 14.8131 -7.2072 -1.49512 -4.63865
129 1 16.419 -6.87095 58.8625 -4.47368
130 1 16.271 -8.55188 -2.89645 -4.5028
131 1 16.3024 -5.49917 -0.67994 -4.57506
132 1 18.3958 -5.50193 -4.68736 -3.80256
133 1 -17.9801 -5.34702 -1.79523 -3.75167
134 1 -17.669 -2.9611 -4.17128 -4.99345
135 1 -19.1527 -3.13131 -2.28428 -4.26556
136 1 -17.5724 -2.22106 -0.750539 -4.60288
137 1 -16.5558 -5.10544 0.120997 -4.501
138 1 -16.1563 -1.23034 -3.53565 -4.53122
139 1 -14.9602 -5.11384 -4.51761 -4.58874
140 1 -15.4129 -2.53493 -1.68699 -4.43553
141 1 -12.7424 -4.99573 -1.61538 -4.50419
142 1 -12.6072 -2.43127 58.7283 -4.36242
143 1 -13.851 -3.58261 -3.17736 -4.44882
144 1 -13.9408 -1.46449 -0.0569152 -4.47517
145 1 -11.2765 -3.88917 -0.078838 -4.52447
146 1 -11.392 -1.44214 -3.1829 -4.37219
147 1 -9.96865 -4.76606 58.8197 -4.52145
148 1 -9.96224 -2.30494 -1.396 -4.42688
149 1 -7.56772 -4.73031 -1.45068 -4.4522
150 1 -7.47651 -2.30964 58.8709 -4.4849
151 1 -8.76763 -3.44637 -3.2336 -4.42669
152 1 -8.50241 -1.25117 0.147489 -4.4756
153 1 -6.12751 -3.57763 0.127754 -4.49868
154 1 -6.22918 -1.17993 -3.01342 -4.50999
155 1 -5.00168 -4.7697 -4.56516 -4.50034
156 1 -4.81407 -2.25911 -1.37984 -4.45445
157 1 -2.41158 -4.755 -1.59683 -4.46698
158 1 -2.2966 -2.23933 -4.65323 -4.53697
159 1 -3.68463 -3.49474 -3.14654 -4.52801
160 1 -3.74411 -0.89075 0.330301 -4.48403
161 1 -1.28856 -3.44538 0.205888 -4.41675
162 1 -1.1605 -0.934691 -3.03056 -4.48337
163 1 0.150855 -4.91775 -4.64512 -4.49033
164 1 -0.0617838 -2.3259 -1.54937 -4.48094
165 1 2.68777 -4.79548 -1.44054 -4.42566
166 1 2.35881 -2.17185 -4.52897 -4.49858
167 1 1.31104 -3.65732 -2.95411 -4.5485
168 1 1.39767 -1.10418 0.0643763 -4.4476
169 1 3.88826 -3.52441 0.268383 -4.45827
170 1 3.72485 -1.02467 -3.00746 -4.47274
171 1 5.26876 -4.77019 -4.73713 -4.50611
172 1 5.01583 -2.19879 -1.37542 -4.51082
173 1 7.51535 -4.6766 -1.24019 -4.4631
174 1 7.63112 -2.17813 -4.28467 -4.4761
175 1 6.26366 -3.54644 -2.89259 -4.51917
176 1 6.31341 -1.03783 0.259367 -4.46513
177 1 8.90208 -3.59314 0.451882 -4.48863
178 1 8.96354 -1.16063 -2.65843 -4.48654
179 1 9.86447 -4.74969 -4.39768 -4.50458
180 1 10.3185 -2.40675 -1.05457 -4.46094
181 1 12.6236 -4.88034 -1.29005 -4.40791
182 1 12.4574 -2.44716 59.0791 -4.4576
183 1 11.207 -3.623 -2.83377 -4.44447
184 1 11.7349 -1.3609 0.600838 -4.39067
185 1 14.6221 -4.05697 -0.282976 -4.45685
186 1 13.4785 -1.21214 -2.75852 -4.41052
187 1 15.0927 -5.0111 58.7056 -4.4236
188 1 15.457 -2.33702 -1.58701 -4.44431
189 1 17.9868 -4.69968 -2.37034 -4.5642
190 1 17.5897 -2.25699 58.85 -4.68074
191 1 16.2145 -3.59251 -3.43875 -4.70422
192 1 16.3877 -1.20645 0.311541 -4.47777
193 1 18.5677 -2.67004 -1.48845 -3.85014
194 1 18.4778 -0.924647 -3.02851 -3.92825
195 1 -19.3164 -1.21515 -3.74941 -4.40458
196 1 -18.3192 -0.0755147 -0.291735 -4.26674
197 1 -17.9029 2.24114 -4.25685 -4.27223
198 1 -17.7979 0.280973 -2.72085 -4.42793
199 1 -17.9816 4.20256 1.21734 -4.31882
200 1 -16.5774 1.37563 0.185654 -4.49995
201 1 -16.502 3.56286 -2.80099 -4.34659
202 1 -14.9547 -0.205197 58.4279 -4.49396
203 1 -15.0373 2.07852 -1.61148 -4.45565
204 1 -12.68 -0.182839 -1.67165 -4.47977
205 1 -12.627 2.56113 58.7245 -4.55006
206 1 -13.8641 1.07463 -3.41854 -4.40494
207 1 -13.697 3.33451 -0.249439 -4.37185
208 1 -11.453 1.11882 0.000531468 -4.47127
209 1 -11.2871 3.70818 -3.41829 -4.43713
210 1 -10.2623 -0.160299 58.9334 -4.48918
211 1 -10.1773 2.4495 -1.51565 -4.41315
212 1 -7.54545 0.27517 -1.48309 -4.46206
213 1 -7.68254 2.45459 -4.76749 -4.49647
214 1 -8.93283 1.22381 -3.18383 -4.45944
215 1 -8.82837 3.63506 0.176441 -4.48714
216 1 -6.17317 1.43678 0.0982627 -4.4499
217 1 -6.22227 3.63294 -3.18079 -4.46155
218 1 -4.91324 0.17418 -4.47776 -4.51503
219 1 -4.81154 2.74567 -1.42612 -4.4432
220 1 -2.40341 0.32628 -1.36131 -4.4976
221 1 -2.4207 2.80095 58.9896 -4.39785
222 1 -3.57748 1.60311 -3.01735 -4.50167
223 1 -3.6451 3.99679 0.159109 -4.43078
224 1 -0.926655 1.58125 0.0567026 -4.57118
225 1 -1.07579 3.92786 -2.99137 -4.48771
226 1 0.090372 0.406189 58.8823 -4.43596
227 1 0.35285 3.03006 -1.32073 -4.48949
228 1 2.70341 0.255561 -1.42022 -4.50137
229 1 2.71115 2.84547 -4.52512 -4.56806
230 1 1.37958 1.64246 -2.9584 -4.46587
231 1 1.57617 4.1232 0.299646 -4.41018
232 1 3.86684 1.5968 0.241645 -4.43
233 1 4.16377 4.12708 -3.03068 -4.53534
234 1 5.11716 0.14458 -4.38472 -4.5529
235 1 5.17842 2.64432 -1.42745 -4.49517
236 1 7.54452 0.195267 -1.37761 -4.5332
237 1 7.80701 2.81116 -4.57748 -4.52239
238 1 6.49619 1.52285 -3.05581 -4.52044
239 1 6.50869 3.6955 0.195116 -4.44092
240 1 8.79863 1.18451 0.382763 -4.41731
241 1 8.97389 4.12769 -2.93424 -4.43323
242 1 10.0389 0.212663 -4.35653 -4.44361
243 1 9.80126 2.77506 -1.1727 -4.44418
244 1 12.5133 0.169131 -0.959969 -4.39302
245 1 12.2503 2.78728 -4.0717 -4.4357
246 1 11.1026 1.43338 -2.58266 -4.47637
247 1 11.1625 3.76659 0.595837 -4.33107
248 1 13.6417 1.50016 0.625389 -4.47502
249 1 13.8436 4.25619 -2.89684 -4.89878
250 1 14.6774 0.0793029 -4.31513 -4.4958
251 1 14.6702 2.71549 -1.20499 -4.21496
252 1 17.639 0.188107 -1.15749 -4.50256
253 1 16.4755 2.63779 -3.999 -4.49791
254 1 15.7941 0.952625 -2.52711 -4.3833
255 1 16.3122 4.00763 0.0343347 -4.88039
256 1 19.12 1.15862 0.524118 -4.2925
257 1 18.3836 3.86922 -4.23008 -4.16124
258 1 18.255 1.45571 58.8023 -3.8015
259 1 -17.5266 4.83342 -1.08765 -4.11998
260 1 -17.0784 7.92932 57.7702 -4.54195
261 1 -17.516 6.17096 -4.23495 -3.79422
262 1 -16.4772 6.78967 -0.496093 -4.24007
263 1 -16.557 8.90792 -3.74963 -3.81922
264 1 -15.4399 4.81815 58.9868 -5.30123
265 1 -15.1529 7.87759 -2.06101 -4.56291
266 1 -12.6138 4.78643 -1.77645 -4.53873
267 1 -12.6924 7.47682 58.8686 -4.5146
268 1 -14.0192 6.15137 -3.28814 -4.31448
269 1 -13.5728 8.87463 -0.454522 -4.48376
270 1 -11.3409 6.04327 -0.194938 -4.54765
271 1 -11.1939 8.65808 -3.43062 -4.51468
272 1 -10.0767 5.08133 58.7445 -4.50487
273 1 -10.1252 7.4195 -1.64796 -4.52955
274 1 -7.55233 4.79061 -1.52581 -4.44588
275 1 -7.73136 7.44935 58.7301 -4.48876
276 1 -8.745 6.15213 -3.08877 -4.47948
277 1 -8.68594 8.45112 -0.127561 -4.45319
278 1 -6.08643 6.19154 -0.0486571 -4.47674
279 1 -6.48467 8.82264 -3.26591 -4.55187
280 1 -5.00424 4.89496 58.7492 -4.48731
281 1 -5.16477 7.6924 -1.72858 -4.4714
282 1 -2.54825 5.19001 -1.5295 -4.48875
283 1 -2.31412 7.51078 -4.62248 -4.47282
284 1 -3.81012 6.35386 -3.23546 -4.52033
285 1 -3.8443 8.86464 -0.0580746 -4.52141
286 1 -1.39315 6.26341 0.184465 -4.44244
287 1 -1.14472 8.91877 -2.93291 -4.52442
288 1 0.154965 5.2541 -4.55832 -4.50836
289 1 -0.0237484 7.55486 -1.46205 -4.52794
290 1 2.76748 5.2973 -1.48854 -4.50576
291 1 2.80236 7.84492 -4.51785 -4.54442
292 1 1.46966 6.57184 -2.99195 -4.5278
293 1 1.24485 8.79789 0.135032 -4.52499
294 1 3.96327 6.54991 0.210349 -4.4858
295 1 4.08745 9.19337 -2.95795 -4.42015
296 1 5.546 5.54283 -4.41089 -4.4455
297 1 5.08822 7.83951 -1.32134 -4.58389
298 1 7.72728 5.2799 -1.18907 -4.55935
299 1 8.7679 8.70099 58.047 -4.33136
300 1 6.72584 6.88723 -2.75035 -4.55823
301 1 6.47137 9.18973 0.123547 -4.39759
302 1 8.87201 6.61792 0.479464 -4.42047
303 1 8.5184 8.48891 -3.15196 -4.46411
304 1 9.98529 5.81305 -4.25211 -4.28881
305 1 9.91267 8.03533 -1.26755 -4.35656
306 1 12.2591 5.01924 -1.19495 -4.19888
307 1 12.6518 7.66584 57.7011 -4.52558
308 1 11.4065 6.90683 -2.57489 -4.38323
309 1 11.6038 9.20742 1.58426 -4.47036
310 1 13.5356 6.18354 0.759002 -4.50023
311 1 12.707 9.96759 58.5703 -4.08253
312 1 14.2065 4.96161 58.3727 -4.38691
313 1 14.7567 7.46475 -0.726365 -4.40596
314 1 17.4587 4.9406 -1.82232 -3.86766
315 1 15.9683 6.5721 58.6257 -4.36616
316 1 15.5787 6.01724 -2.51017 -4.30686
317 1 15.9377 8.20747 1.42131 -4.21045
318 1 18.4582 5.25727 0.462456 -4.06153
319 1 -15.3584 12.5492 0.877419 -4.10252
320 1 -14.8541 10.174 59.0408 -4.58617
321 1 -14.9583 13.2422 -1.55373 -4.10016
322 1 -12.3515 10.1539 -2.00091 -4.58618
323 1 -12.5692 13.0283 58.8548 -4.99249
324 1 -13.736 11.8166 -3.02946 -4.32194
325 1 -13.2723 13.4751 0.19252 -4.82639
326 1 -10.6562 10.9665 -0.522969 -4.32789
327 1 -11.6605 14.3975 -2.93919 -4.15459
328 1 -10.1267 10.075 58.6839 -4.5715
329 1 -10.31 12.6515 -2.30476 -4.3875
330 1 -7.86379 10.0704 -1.86017 -4.45413
331 1 -7.36141 12.5973 58.3913 -4.48762
332 1 -8.71204 11.4528 -3.57066 -4.53016
333 1 -9.05779 13.6842 -0.531488 -4.53411
334 1 -6.3503 11.2069 -0.340265 -4.51678
335 1 -6.3949 13.8994 -3.6022 -4.48975
336 1 -5.02902 9.92933 58.777 -4.55049
337 1 -5.43103 12.5865 -1.98587 -4.43103
338 1 -2.62988 10.1984 -1.6616 -4.54702
339 1 -2.33455 12.4732 58.6886 -4.54912
340 1 -3.84402 11.361 -3.36815 -4.57427
341 1 -3.98251 13.6737 -0.505743 -4.44032
342 1 -1.38744 11.2972 0.041201 -4.56349
343 1 -1.20751 13.6872 -3.1719 -4.51458
344 1 0.16821 10.1992 -4.4942 -4.4775
345 1 -0.0727794 12.5446 -1.4555 -4.52457
346 1 2.56029 10.1126 -1.40812 -4.50922
347 1 2.69129 12.6406 58.8789 -4.41347
348 1 1.46148 11.5184 -2.98356 -4.50693
349 1 1.07022 13.6649 0.222059 -4.54878
350 1 3.82227 11.7266 0.056868 -4.31933
351 1 4.04503 13.9547 -3.25915 -4.44317
352 1 5.41068 10.1302 58.7343 -4.37814
353 1 5.37088 12.6152 -1.73833 -4.02142
354 1 7.56725 10.2206 -1.86576 -4.34053
355 1 7.66765 12.5364 57.7488 -4.31385
356 1 6.80745 11.7355 -3.54033 -4.21569
357 1 6.22548 14.0424 0.423735 -4.20105
358 1 8.75542 11.7959 1.26215 -4.5961
359 1 8.73153 14.3714 58.7118 -4.52366
360 1 10.5592 10.1504 57.3515 -4.81842
361 1 8.74426 12.1933 -1.07184 -4.38564
362 1 11.4676 9.7875 -0.666406 -5.0013
363 1 12.4544 11.6635 56.8437 -4.50398
364 1 10.7056 11.4175 -2.12364 -4.36618
365 1 10.3945 13.3042 1.71105 -4.57258
366 1 13.3417 10.7064 1.82652 -4.59599
367 1 12.7472 12.4483 -1.4154 -3.75512
368 1 14.5849 10.3075 57.2167 -4.18418
369 1 13.8229 10.5661 -0.56605 -4.34542
370 1 13.1638 8.68799 -2.03808 -4.155
371 1 -13.4104 15.1499 -1.48448 -4.20526
372 1 -12.4396 15.7613 0.621091 -4.22899
373 1 -9.41253 15.3741 58.2978 -4.42045
374 1 -7.97507 14.9678 -2.29183 -4.54895
375 1 -8.25635 17.4314 58.1224 -4.47192
376 1 -9.22104 16.6363 -3.35006 -4.43916
377 1 -6.45403 15.8914 -0.748678 -4.74068
378 1 -7.33007 18.0368 -3.42722 -3.63946
379 1 -5.24971 15.3527 58.5986 -4.48874
380 1 -5.44147 17.4347 -2.08598 -4.59287
381 1 -2.72939 15.0832 -1.79397 -4.51917
382 1 -2.45827 17.6701 58.6553 -4.5572
383 1 -3.84986 16.381 -3.51444 -4.46517
384 1 -5.13518 18.6758 0.165247 -4.01501
385 1 -1.49886 16.2061 -0.059447 -4.56471
386 1 -0.761179 18.4448 -3.52506 -3.67507
387 1 0.313389 14.9429 -4.62743 -4.42041
388 1 0.0250879 17.3611 -1.45016 -4.64253
389 1 2.65727 14.6411 -1.25929 -4.36483
390 1 2.89146 17.4306 -3.5279 -4.48631
391 1 1.30163 15.9571 -2.69983 -4.67255
392 1 1.32195 18.782 -0.0203154 -4.35105
393 1 3.22937 16.2166 0.506553 -4.45386
394 1 3.06361 19.0007 -1.74442 -3.91068
395 1 5.11938 14.7082 58.2562 -3.50211
396 1 4.56171 17.7056 -0.567139 -4.53692
397 1 8.3519 17.7746 -4.4958 -4.35928
398 1 9.34781 18.0927 57.0017 -4.34178
399 1 7.01088 15.8668 -4.67146 -4.57783
400 1 4.53539 19.1498 1.14857 -4.29477
401 1 7.48833 15.8043 1.41899 -4.51919
402 1 9.56449 14.8931 56.546 -4.49678
403 1 10.7159 13.4312 -0.669597 -4.38317
404 1 10.1002 16.3275 58.297 -4.45727
405 1 1.45221 19.1055 -4.2131 -4.01775
406 1 -11.9067 -15.8598 0.922782 -4.21144
407 1 -7.40906 -17.5992 1.29891 -3.64262
408 1 -8.57357 -15.9071 6.14349 -3.62746
409 1 -6.04717 -18.3206 7.00584 -3.98046
410 1 -6.01164 -16.6734 3.0903 -4.50772
411 1 -4.81698 -17.5308 4.83495 -4.46872
412 1 -2.44683 -17.9256 1.41082 -4.22695
413 1 -3.01143 -18.624 3.76565 -3.76207
414 1 -3.45865 -16.0786 6.08475 -4.46821
415 1 -1.67923 -18.7122 5.68318 -3.84636
416 1 -0.951069 -16.6839 2.71268 -4.97903
417 1 1.18543 -20.1136 -1.23662 -4.14598
418 1 0.251111 -18.0002 4.51333 -4.22065
419 1 2.35477 -17.508 1.0601 -4.46105
420 1 0.539621 -18.6293 2.15103 -4.23579
421 1 1.16548 -16.0946 5.78749 -4.3876
422 1 4.68467 -18.1375 7.28136 -4.33145
423 1 3.93212 -16.709 2.6909 -4.43799
424 1 5.24002 -17.7737 4.51235 -4.15888
425 1 7.87668 -17.3009 0.947144 -4.51271
426 1 7.3717 -17.7731 3.37012 -3.4905
427 1 5.79019 -15.7363 5.59853 -4.72662
428 1 8.3966 -15.7459 2.59417 -4.50277
429 1 12.3933 -14.507 7.79971 -4.4586
430 1 -16.8758 -9.47359 3.4119 -4.02758
431 1 -15.3653 -11.9699 3.23265 -3.77523
432 1 -12.4299 -14.4408 2.62995 -4.00179
433 1 -12.2985 -12.5582 1.12744 -4.73623
434 1 -14.4501 -13.6609 1.7858 -4.3492
435 1 -14.2217 -11.3065 5.22137 -5.01319
436 1 -11.4182 -13.7572 5.19994 -4.31547
437 1 -11.14 -11.3027 2.97767 -4.42401
438 1 -9.70617 -15.1152 0.947233 -4.08598
439 1 -9.69505 -12.4824 4.29405 -4.6128
440 1 -7.20017 -15.0848 4.30384 -4.57063
441 1 -7.38212 -12.5793 1.66934 -4.59889
442 1 -8.70912 -14.105 2.77241 -4.43926
443 1 -8.90043 -11.1331 6.16089 -4.43277
444 1 -6.23551 -13.659 5.98738 -4.50692
445 1 -6.17134 -11.2566 3.22931 -4.53425
446 1 -4.69518 -15.3519 1.58159 -4.54812
447 1 -4.74124 -12.5242 4.57378 -4.6026
448 1 -1.92035 -15.2664 4.41952 -4.22333
449 1 -2.3299 -12.6759 1.66962 -4.52994
450 1 -3.44182 -14.0877 3.23567 -4.53113
451 1 -3.79523 -11.0748 6.20599 -4.50525
452 1 -1.24016 -13.8116 6.03941 -4.47358
453 1 -1.21695 -11.1801 3.21041 -4.54828
454 1 0.222266 -14.9155 1.51059 -4.36682
455 1 0.109816 -12.3479 4.78643 -4.54988
456 1 2.69337 -15.2385 4.14677 -4.56307
457 1 2.60644 -12.3173 1.43189 -4.52901
458 1 1.35683 -13.5425 3.09246 -4.51322
459 1 1.29803 -11.147 6.54338 -4.38434
460 1 4.04729 -14.0874 5.85919 -4.40514
461 1 3.59713 -11.0307 3.28108 -4.44774
462 1 5.01118 -14.8545 1.57104 -4.46543
463 1 5.02731 -12.2056 4.69759 -4.5421
464 1 7.62616 -14.6866 4.65747 -4.38123
465 1 7.51013 -12.2675 1.70377 -4.47702
466 1 6.1901 -13.5324 3.04396 -4.52249
467 1 6.13765 -10.7269 6.34376 -4.4263
468 1 8.77319 -13.3101 6.39912 -4.32894
469 1 8.90828 -11.0939 3.34044 -4.57762
470 1 10.6753 -15.3118 2.36148 -3.61593
471 1 10.2435 -12.3407 4.86274 -4.56239
472 1 12.9973 -14.4439 5.34908 -3.60182
473 1 12.9522 -12.5232 1.59575 -4.35692
474 1 11.7829 -13.6036 3.48454 -4.6241
475 1 11.3229 -10.6919 6.24335 -4.47471
476 1 12.5945 -12.1257 7.73475 -4.64405
477 1 14.0833 -11.0545 3.11992 -4.52434
478 1 14.5428 -12.8257 4.68794 -3.64915
479 1 14.9179 -12.2332 7.07398 -4.48207
480 1 -17.1238 -7.58398 1.98045 -4.71239
481 1 -18.7153 -5.01606 7.73212 -4.3168
482 1 -16.5368 -8.77593 5.68773 -4.45799
483 1 -15.9919 -6.16657 3.27695 -4.63256
484 1 -15.0299 -9.9711 2.06934 -4.77394
485 1 -14.8621 -7.42923 4.85763 -4.62046
486 1 -12.3487 -9.96509 4.59588 -4.39907
487 1 -12.2573 -7.61045 1.41028 -4.40976
488 1 -13.5156 -8.48608 3.16639 -4.61193
489 1 -13.6036 -6.35823 6.59855 -4.51551
490 1 -11.3691 -8.8315 6.49201 -4.36123
491 1 -11.1578 -6.39909 3.17742 -4.47904
492 1 -9.86892 -9.9181 1.5496 -4.51114
493 1 -9.97803 -7.58632 4.84283 -4.42049
494 1 -7.4168 -10.0398 4.72914 -4.48533
495 1 -7.37429 -7.36289 1.62104 -4.49819
496 1 -8.57987 -8.67552 3.26858 -4.49428
497 1 -8.78292 -6.44557 6.40651 -4.50875
498 1 -6.44716 -8.78848 6.40649 -4.45586
499 1 -6.40222 -5.9699 3.29841 -4.43874
500 1 -4.81296 -9.93983 1.75108 -4.53501
501 1 -5.13955 -7.21756 4.93251 -4.49265
502 1 -2.43777 -9.84198 4.73254 -4.53675
503 1 -2.53422 -7.39068 1.69797 -4.46438
504 1 -3.7945 -8.46546 3.39325 -4.53794
505 1 -3.74841 -6.13854 6.42797 -4.46928
506 1 -1.33864 -8.58837 6.57313 -4.48201
507 1 -1.33723 -6.15921 3.32579 -4.54784
508 1 0.0916434 -9.79779 1.897 -4.48799
509 1 0.0520689 -7.27579 4.97339 -4.49773
510 1 2.55504 -9.87287 4.98833 -4.46023
511 1 2.40531 -7.25782 1.91255 -4.35227
512 1 1.34581 -8.58378 3.44596 -4.50248
513 1 1.0907 -5.90183 6.64187 -4.48262
514 1 3.45279 -8.44018 6.65483 -4.52976
515 1 3.58743 -5.92607 3.65615 -4.45966
516 1 4.85588 -9.67852 1.75585 -4.51378
517 1 4.89325 -7.17788 5.21327 -4.49558
518 1 7.49308 -9.68352 4.70947 -4.51651
519 1 7.5053 -6.96194 1.9553 -4.56844
520 1 6.02861 -8.24933 3.40128 -4.50658
521 1 6.22726 -6.11842 6.84569 -4.53966
522 1 8.67609 -8.65142 6.44601 -4.47405
523 1 8.90529 -5.82905 3.56363 -4.49796
524 1 10.1297 -9.68872 1.87451 -4.56658
525 1 10.0843 -7.32118 4.99803 -4.54403
526 1 12.7888 -9.78018 4.73637 -4.49501
527 1 12.6869 -7.01165 2.12555 -4.4568
528 1 11.4811 -8.37626 3.50527 -4.54165
529 1 11.306 -6.15415 6.76941 -4.57147
530 1 13.9912 -8.59003 6.27482 -4.48658
531 1 14.0355 -5.94138 3.8129 -4.43621
532 1 15.4035 -9.7727 1.49709 -4.22284
533 1 15.6563 -7.3631 4.90716 -4.62058
534 1 16.6422 -5.80013 1.62777 -4.50958
535 1 16.1988 -7.8761 2.65049 -3.63858
536 1 16.7087 -5.9187 6.46214 -3.99862
537 1 18.0872 -4.23372 2.48222 -4.40109
538 1 -17.7131 -5.22905 4.57515 -4.53953
539 1 -17.0568 -3.20842 1.35946 -4.30122
540 1 -18.7853 -4.24375 2.59424 -4.47721
541 1 -18.9209 -2.20031 3.86852 -4.02763
542 1 -16.115 -3.84478 5.71376 -4.54117
543 1 -16.6527 -1.377 3.15226 -5.27521
544 1 -14.6477 -5.19546 1.51685 -4.3239
545 1 -14.9442 -2.25244 4.62138 -4.19347
546 1 -12.5537 -5.28211 4.75949 -4.44092
547 1 -12.351 -2.55082 1.53588 -4.47567
548 1 -13.6202 -3.8489 3.12681 -4.40208
549 1 -13.6316 -1.37771 6.43516 -4.40217
550 1 -11.3556 -3.83706 6.37164 -4.498
551 1 -11.1434 -1.40514 3.19474 -4.42755
552 1 -9.99665 -4.86255 1.71348 -4.46568
553 1 -10.0262 -2.49113 5.01351 -4.48737
554 1 -7.58178 -4.83189 5.10524 -4.51421
555 1 -7.36979 -2.46604 1.9639 -4.45726
556 1 -8.80421 -3.69275 3.41767 -4.47401
557 1 -8.87076 -1.19697 6.53681 -4.48995
558 1 -6.27595 -3.44282 6.57906 -4.46324
559 1 -6.11701 -1.02461 3.37907 -4.58899
560 1 -4.8703 -4.89349 1.69527 -4.5005
561 1 -4.91853 -2.44848 4.79 -4.48397
562 1 -2.49542 -4.86276 4.92095 -4.47347
563 1 -2.42795 -2.16448 1.78244 -4.54653
564 1 -3.57578 -3.66319 3.24898 -4.50666
565 1 -3.82598 -1.16585 6.49673 -4.45332
566 1 -1.29421 -3.64462 6.43629 -4.42491
567 1 -1.16648 -0.891926 3.21452 -4.47494
568 1 -0.0707077 -4.69157 1.89497 -4.48547
569 1 -0.0558197 -2.18225 4.90393 -4.54098
570 1 2.48683 -4.62366 5.31508 -4.46638
571 1 2.54231 -2.11474 1.78951 -4.4309
572 1 1.37811 -3.4673 3.4463 -4.49256
573 1 1.39056 -1.12048 6.45613 -4.44361
574 1 3.86244 -3.43586 6.88334 -4.48895
575 1 3.83902 -1.04963 3.36004 -4.50488
576 1 4.9624 -4.7595 2.05439 -4.44867
577 1 4.97324 -2.34113 4.94206 -4.41647
578 1 7.51856 -4.70361 5.32306 -4.45764
579 1 7.5284 -2.42711 1.89716 -4.47568
580 1 6.35793 -3.60015 3.52249 -4.49038
581 1 6.06229 -1.0584 6.67821 -4.50015
582 1 8.76388 -3.38404 6.8809 -4.54878
583 1 8.76248 -1.1139 3.53939 -4.4906
584 1 10.2527 -4.68253 2.06293 -4.47639
585 1 10.0671 -2.33399 5.12301 -4.49373
586 1 12.6728 -4.9075 5.34966 -4.52967
587 1 12.865 -2.77112 2.20645 -4.31322
588 1 11.4544 -3.75902 3.84596 -4.50456
589 1 11.3649 -1.14456 6.84247 -4.51736
590 1 13.906 -3.44904 6.7079 -4.55199
591 1 13.7314 -1.16232 3.66527 -4.59161
592 1 14.8562 -4.35011 2.20566 -4.95389
593 1 15.1968 -2.06414 5.24926 -4.48064
594 1 17.6623 -4.45367 4.85969 -3.61019
595 1 18.3484 -2.32327 0.909426 -4.3845
596 1 16.4294 -3.04236 3.54265 -4.41708
597 1 16.6145 -0.32278 6.32394 -4.30843
598 1 18.7451 -0.85664 7.31465 -4.3898
599 1 19.0908 -0.390912 2.33349 -4.29482
600 1 -18.8318 -0.457002 2.28433 -3.96439
601 1 -17.0505 0.0635217 5.11087 -4.48455
602 1 -16.9989 2.41443 2.33846 -4.62056
603 1 -18.479 1.36244 3.84471 -4.47253
604 1 -17.8409 3.39791 5.32523 -4.36954
605 1 -15.7505 1.34285 6.55016 -4.60846
606 1 -16.0276 3.95009 3.76142 -4.55806
607 1 -15.3391 -0.237788 1.43541 -4.30747
608 1 -14.4972 2.38238 4.79204 -4.44355
609 1 -12.4036 0.0176307 4.80633 -4.41198
610 1 -12.5455 2.49043 1.66307 -4.43026
611 1 -13.7778 0.977453 3.00592 -4.41303
612 1 -13.1937 3.90723 6.28364 -4.47314
613 1 -11.2093 1.22143 6.43332 -4.48714
614 1 -11.5508 3.97742 3.26947 -4.38417
615 1 -10.0492 -0.0564887 1.58252 -4.51892
616 1 -10.0886 2.71029 4.81369 -4.47869
617 1 -7.58951 0.122182 4.86375 -4.4572
618 1 -7.57772 2.42318 1.79405 -4.53947
619 1 -9.00899 1.17328 3.28597 -4.50631
620 1 -8.59462 3.88605 6.3657 -4.42764
621 1 -6.12 1.28422 6.56249 -4.44807
622 1 -6.29545 3.85356 3.16363 -4.51701
623 1 -4.95454 0.428791 1.83226 -4.50992
624 1 -4.99306 2.73968 4.97457 -4.43947
625 1 -2.53388 0.148159 4.90432 -4.44855
626 1 -2.35053 2.85532 1.62772 -4.38973
627 1 -3.50498 1.67734 3.33061 -4.49167
628 1 -3.64046 3.82949 6.51787 -4.50581
629 1 -1.38294 1.39254 6.55931 -4.48338
630 1 -1.24442 4.03132 3.5375 -4.42895
631 1 0.225657 0.246014 1.67881 -4.49865
632 1 -0.136413 2.59187 5.01575 -4.50607
633 1 2.65201 0.335012 4.94232 -4.4954
634 1 2.67386 2.85231 1.871 -4.48927
635 1 1.21174 1.59486 3.34802 -4.46775
636 1 1.16314 3.78545 6.58819 -4.47108
637 1 3.79755 1.64123 6.41347 -4.41945
638 1 3.76914 4.22401 3.41617 -4.44557
639 1 5.0751 0.305426 1.85753 -4.48651
640 1 5.12555 3.10336 5.12136 -4.48444
641 1 7.41361 0.106409 5.10081 -4.5442
642 1 7.5398 2.45067 2.08718 -4.41257
643 1 6.10342 1.41996 3.67736 -4.49652
644 1 6.13574 4.2323 6.91745 -4.4964
645 1 8.6973 1.36288 6.65241 -4.54654
646 1 8.48026 3.86787 3.79 -4.48732
647 1 10.0732 -0.0898196 1.97514 -4.46081
648 1 9.95699 2.58081 5.14226 -4.52511
649 1 12.4622 0.0887606 5.21402 -4.47111
650 1 12.4626 2.65876 2.41708 -4.47241
651 1 11.1871 1.20159 3.63833 -4.54156
652 1 11.1203 3.50489 6.96272 -4.46658
653 1 13.758 1.25378 6.76441 -4.48074
654 1 13.81 3.95376 3.83831 -4.48874
655 1 14.8999 -0.12502 1.89808 -4.48932
656 1 15.075 2.51174 5.2335 -4.49096
657 1 17.5747 0.224754 4.11533 -4.57128
658 1 17.1473 2.19781 1.27563 -4.53815
659 1 15.9191 1.54239 3.24628 -4.54195
660 1 16.4686 3.87097 6.45432 -4.37329
661 1 18.9056 1.90757 4.89708 -4.41964
662 1 18.5787 3.70056 2.32812 -4.50019
663 1 20.0713 1.76415 2.74384 -4.23266
664 1 -18.0566 5.71504 5.4924 -4.46952
665 1 -16.5026 7.41703 1.76619 -4.48506
666 1 -17.5343 5.6386 3.03906 -4.34451
667 1 -15.951 6.47568 6.3807 -4.51234
668 1 -15.5364 9.03774 3.29224 -4.12218
669 1 -15.5874 4.70237 0.494618 -4.77243
670 1 -14.6014 6.97782 4.45607 -4.69525
671 1 -12.4577 5.55063 4.81922 -4.27044
672 1 -12.7021 7.44799 1.2265 -4.50693
673 1 -14.5392 6.20822 2.14554 -4.26901
674 1 -13.3611 8.38275 6.06348 -4.25403
675 1 -10.9507 6.28914 6.40979 -4.51232
676 1 -11.3888 8.30276 3.09435 -4.22696
677 1 -10.2446 4.8895 1.62063 -4.49864
678 1 -9.76608 7.4734 4.76083 -4.37102
679 1 -7.5052 5.09543 4.70619 -4.45544
680 1 -7.42767 7.40424 1.53347 -4.5035
681 1 -8.77345 6.23508 3.0051 -4.47248
682 1 -8.43076 8.83109 6.40933 -4.34045
683 1 -6.09994 6.11911 6.35632 -4.45214
684 1 -6.18888 8.7996 2.95692 -4.49267
685 1 -4.86286 5.25196 1.8162 -4.46048
686 1 -5.09563 7.90496 4.96224 -4.42979
687 1 -2.64629 5.34915 5.02545 -4.50999
688 1 -2.5728 7.75548 1.62182 -4.44215
689 1 -3.84565 6.70883 3.3645 -4.46244
690 1 -3.85352 9.11724 6.58016 -4.45198
691 1 -1.49907 6.58057 6.60294 -4.52614
692 1 -1.36037 8.90737 3.39718 -4.4289
693 1 0.0136775 5.06743 1.7921 -4.47418
694 1 -0.18956 7.64787 5.02451 -4.46454
695 1 2.31244 5.12194 5.07277 -4.4608
696 1 2.44559 7.49408 1.692 -4.51426
697 1 1.12354 6.42169 3.3597 -4.44919
698 1 1.15118 8.78299 6.55095 -4.53958
699 1 3.74753 6.39423 6.60632 -4.4691
700 1 3.64461 8.89073 3.17617 -4.42277
701 1 5.25814 5.16954 1.66284 -4.40004
702 1 4.81381 7.75589 5.05307 -4.35511
703 1 7.43362 5.38007 5.2385 -4.41426
704 1 7.32504 7.73408 1.92653 -4.36918
705 1 6.06697 6.47254 3.60341 -4.40592
706 1 6.39104 8.94651 6.70051 -4.3432
707 1 8.74103 6.3827 7.08583 -4.43763
708 1 8.58238 8.59221 3.83223 -4.57913
709 1 9.752 5.01861 2.1827 -4.43266
710 1 10.0639 7.76607 5.51479 -4.32168
711 1 12.3328 4.92382 5.44862 -4.51851
712 1 12.6137 7.292 2.66618 -4.44794
713 1 10.9607 6.18742 3.88388 -4.60242
714 1 11.7765 9.3908 8.20676 -4.51228
715 1 13.6569 6.32604 6.97398 -4.39122
716 1 13.6202 8.38122 4.41429 -4.22231
717 1 14.9489 4.74886 1.88736 -4.39092
718 1 15.2114 7.88449 6.05239 -4.73255
719 1 17.9847 4.07304 4.63907 -4.28288
720 1 17.8786 6.92848 2.06794 -4.27056
721 1 15.8977 6.46936 3.15934 -4.44259
722 1 16.7717 9.15175 7.60076 -4.08733
723 1 17.9837 6.32611 4.40066 -4.14829
724 1 -14.9905 10.8573 4.78348 -4.19319
725 1 -14.9658 10.1371 1.11522 -4.50393
726 1 -14.3842 12.5496 3.13464 -4.54247
727 1 -12.5926 9.98524 4.41986 -4.91032
728 1 -11.4146 12.4399 1.29784 -4.08873
729 1 -12.9437 10.8629 2.1305 -4.5224
730 1 -12.8022 13.6544 4.33903 -3.70125
731 1 -11.0241 10.9743 6.03661 -4.41049
732 1 -10.717 13.9989 2.90927 -5.27594
733 1 -10.0632 9.57416 1.39939 -4.42943
734 1 -9.77952 12.3394 4.47088 -4.24085
735 1 -7.6112 9.9829 4.37056 -4.58134
736 1 -7.73236 12.476 1.08479 -4.51185
737 1 -8.85748 11.1135 2.74811 -4.53324
738 1 -7.84538 13.3955 5.35398 -4.95231
739 1 -6.25979 11.6 5.41192 -4.06286
740 1 -6.06826 13.8155 1.98084 -4.65852
741 1 -5.02399 10.1755 1.46512 -4.5054