ITEM: TIMESTEP
18000
ITEM: NUMBER OF ATOMS
4050
ITEM: BOX BOUNDS ss ss pp
-2.1565016844867905e+01 2.1384130372865869e+01
-2.1687626995532639e+01 2.1657300875853561e+01
-2.4439500000000003e-01 5.4554395000000000e+01
ITEM: ATOMS id type x y z c_peratom
1 1 -12.4001 -16.2948 1.7469 -3.88586
2 1 -8.27486 -19.0985 0.214219 -4.21442
3 1 -9.18017 -17.7086 2.99794 -4.50928
4 1 -7.72173 -19.4479 2.50321 -4.44728
5 1 -6.57299 -17.4257 0.324206 -5.18537
6 1 -5.63836 -18.4608 2.2041 -4.36761
7 1 -2.83665 -18.6103 54.241 -4.65202
8 1 -4.71904 -19.6311 0.494083 -4.12121
9 1 -4.19205 -17.4269 3.77516 -4.32163
10 1 -1.07999 -20.1606 4.15536 -4.28331
11 1 -1.65048 -17.4015 1.10762 -4.41771
12 1 0.113063 -20.7766 1.34441 -4.19624
13 1 -0.349776 -18.6879 2.51854 -4.96055
14 1 3.02206 -18.5458 54.136 -4.50775
15 1 1.66552 -19.1956 1.27624 -4.33926
16 1 1.14042 -17.3853 3.78313 -4.49391
17 1 2.98939 -20.1552 3.02996 -4.46346
18 1 3.88407 -16.9986 0.968229 -4.61231
19 1 4.9096 -18.9232 1.86638 -4.40988
20 1 8.17866 -18.5427 0.831001 -3.31518
21 1 9.83061 -18.7388 2.62553 -4.28314
22 1 6.18356 -17.4443 3.25302 -4.36558
23 1 9.58876 -16.6635 1.422 -5.04097
24 1 11.4168 -16.9702 3.07998 -4.19091
25 1 -15.6696 -13.2578 1.54613 -3.97123
26 1 -16.0399 -14.4275 3.57528 -4.07413
27 1 -14.2191 -15.9922 3.27912 -4.50819
28 1 -13.0761 -13.6938 54.5791 -4.455
29 1 -14.395 -15.2713 0.90484 -4.28255
30 1 -14.7545 -12.3461 3.61459 -4.70875
31 1 -12.0553 -14.8437 3.68854 -5.19649
32 1 -11.6948 -12.2453 1.03962 -4.57786
33 1 -10.814 -15.9516 -0.0700396 -4.32098
34 1 -10.3847 -13.5834 2.42196 -4.36573
35 1 -7.72308 -16.0597 2.03438 -4.34008
36 1 -7.88161 -12.9892 54.5271 -4.56531
37 1 -9.12702 -14.7025 0.819672 -4.61178
38 1 -9.31746 -12.1106 3.9193 -4.55379
39 1 -6.69171 -14.7928 3.65014 -4.53452
40 1 -6.57729 -11.8694 1.21198 -4.57244
41 1 -5.34945 -15.5275 54.3746 -4.32612
42 1 -5.31394 -13.288 2.59193 -4.62831
43 1 -2.8119 -16.0462 2.51396 -4.59484
44 1 -2.56078 -13.22 -0.213623 -4.60434
45 1 -3.99466 -14.5537 1.16682 -4.58734
46 1 -4.05834 -11.9317 4.00969 -4.60734
47 1 -1.23215 -14.6985 3.67555 -4.56759
48 1 -1.34761 -11.9046 1.23569 -4.60843
49 1 -0.0844524 -16.3703 -0.373693 -4.53541
50 1 0.0952028 -13.2815 2.38013 -4.55227
51 1 2.47814 -15.8553 2.44081 -4.51974
52 1 2.54959 -13.4127 54.3705 -4.60039
53 1 1.09352 -14.775 0.845288 -4.60018
54 1 1.24122 -11.7926 3.95883 -4.55422
55 1 3.89076 -14.5344 3.62149 -4.53535
56 1 3.90491 -11.9985 0.9207 -4.61229
57 1 5.46036 -16.0966 54.4525 -4.44566
58 1 5.30304 -13.1637 2.37292 -4.60766
59 1 7.73283 -15.6514 2.62658 -4.45679
60 1 8.0884 -13.0991 -0.141577 -4.56199
61 1 6.5798 -14.4767 0.862676 -4.62165
62 1 6.86921 -11.9431 3.63814 -4.56967
63 1 9.01231 -14.544 4.20978 -4.52784
64 1 9.41535 -11.7567 1.16408 -4.55378
65 1 11.0872 -15.8853 54.4239 -4.35489
66 1 10.3495 -13.2915 2.77587 -4.50572
67 1 13.3659 -15.7608 1.92045 -4.38029
68 1 13.0111 -12.5746 0.23259 -4.19177
69 1 11.6892 -14.2787 1.19001 -4.67062
70 1 11.7614 -11.9351 4.08459 -4.63649
71 1 14.506 -13.8724 2.82459 -4.07342
72 1 14.8909 -11.8263 1.66751 -5.34684
73 1 16.6589 -13.687 1.7395 -4.11985
74 1 17.1606 -11.5988 2.77821 -4.15176
75 1 -18.3603 -7.85882 53.823 -3.75155
76 1 -19.5247 -5.87398 3.7192 -3.54018
77 1 -17.4973 -9.53807 3.79539 -3.78043
78 1 -17.5688 -6.81304 0.93403 -4.58568
79 1 -16.1193 -11.3095 -0.115724 -4.16832
80 1 -16.2491 -8.1868 2.22478 -4.58442
81 1 -13.2428 -10.7801 2.23201 -4.41028
82 1 -13.3127 -8.21652 54.3628 -4.56122
83 1 -14.8371 -9.5874 0.923941 -4.62322
84 1 -15.2006 -6.59629 3.70991 -4.57955
85 1 -12.1623 -9.27524 3.65326 -4.59674
86 1 -12.4087 -6.72103 1.03373 -4.51371
87 1 -10.6268 -10.7196 54.3964 -4.60886
88 1 -10.7921 -7.90054 2.21286 -4.62781
89 1 -8.20977 -10.6806 2.54832 -4.57797
90 1 -8.14607 -7.96377 54.3932 -4.56562
91 1 -9.33527 -9.34524 0.949615 -4.54151
92 1 -9.55018 -6.71317 3.89047 -4.58997
93 1 -6.82093 -9.41924 3.8741 -4.59167
94 1 -6.78163 -6.48233 0.971528 -4.58156
95 1 -5.2861 -10.4548 -0.209018 -4.6106
96 1 -5.61387 -7.86742 2.50053 -4.58211
97 1 -2.769 -10.5449 2.56126 -4.62037
98 1 -2.69384 -7.91298 54.4796 -4.59693
99 1 -4.08016 -9.07038 1.19522 -4.59222
100 1 -4.28174 -6.58737 3.82418 -4.56508
101 1 -1.27801 -9.22724 3.84912 -4.59072
102 1 -1.3133 -6.60176 0.988357 -4.60238
103 1 -0.0776678 -10.5479 54.5688 -4.61766
104 1 -0.0351492 -7.94302 2.42117 -4.58079
105 1 2.58042 -10.619 2.30151 -4.5991
106 1 2.57892 -7.9585 54.1692 -4.57159
107 1 1.34717 -9.09594 1.03329 -4.60815
108 1 1.35747 -6.64753 3.8191 -4.61401
109 1 3.9532 -9.45172 3.76757 -4.58276
110 1 3.92194 -6.66149 0.927656 -4.57961
111 1 5.47941 -10.5586 54.6185 -4.55427
112 1 5.06669 -7.83603 2.52119 -4.58196
113 1 8.09714 -10.3056 2.48384 -4.60366
114 1 7.94399 -7.85083 54.4908 -4.59073
115 1 6.55717 -9.07983 1.17574 -4.58752
116 1 6.6767 -6.57973 3.77173 -4.59986
117 1 9.41829 -9.13476 4.06906 -4.60718
118 1 9.34455 -6.72193 1.2821 -4.62379
119 1 10.5776 -10.4725 54.434 -4.58666
120 1 10.8923 -7.92212 2.62504 -4.58787
121 1 13.1506 -10.486 2.74211 -4.366
122 1 13.3792 -8.09638 54.5477 -4.58384
123 1 11.9684 -9.32554 1.12594 -4.5644
124 1 12.2074 -6.63117 4.06343 -4.6148
125 1 14.6576 -9.15573 3.94075 -4.64655
126 1 14.802 -6.92144 1.09326 -4.62066
127 1 15.9905 -11.0489 -0.259184 -4.38793
128 1 16.2231 -8.25565 2.50394 -4.51458
129 1 18.5785 -8.49241 54.4406 -3.4849
130 1 17.5039 -9.92375 1.14581 -4.56561
131 1 17.1586 -6.32475 3.52892 -4.61101
132 1 19.3731 -6.40787 0.372196 -3.53696
133 1 -18.819 -4.86782 1.67937 -4.38829
134 1 -18.6366 -2.55847 54.2301 -5.09165
135 1 -20.373 -3.38972 0.751935 -3.43498
136 1 -20.3954 -1.27003 4.92589 -4.15424
137 1 -17.9143 -3.95763 3.69457 -4.93702
138 1 -17.5543 -1.1283 0.937684 -4.47793
139 1 -16.1293 -5.36066 54.5291 -4.59718
140 1 -16.3193 -2.53563 2.50388 -4.35716
141 1 -13.6672 -5.33421 2.43525 -4.58088
142 1 -13.6202 -2.6774 54.3729 -4.58362
143 1 -14.9113 -3.90863 1.10517 -4.6089
144 1 -14.897 -1.27494 3.97752 -4.55664
145 1 -12.1854 -3.97262 3.80161 -4.58942
146 1 -12.1515 -1.38697 1.06667 -4.55295
147 1 -10.8547 -5.57926 54.2872 -4.56186
148 1 -10.7335 -2.72088 2.38871 -4.60356
149 1 -8.23216 -5.3261 2.47738 -4.61917
150 1 -8.05354 -2.75937 54.584 -4.59579
151 1 -9.63722 -4.21576 0.937353 -4.58142
152 1 -9.59337 -1.46418 4.01742 -4.59835
153 1 -6.89336 -3.85387 3.76558 -4.56202
154 1 -6.69269 -1.43778 1.25503 -4.6069
155 1 -5.27019 -5.27885 54.4758 -4.59984
156 1 -5.2658 -2.7139 2.68269 -4.5359
157 1 -2.67498 -5.48524 2.49549 -4.60196
158 1 -2.63342 -2.60393 -0.0785138 -4.6187
159 1 -4.00999 -3.93201 1.16746 -4.58175
160 1 -4.18645 -1.25281 4.08701 -4.58059
161 1 -1.38819 -4.02966 3.80948 -4.59622
162 1 -1.4054 -1.1436 1.31884 -4.59249
163 1 0.0955923 -5.12353 54.556 -4.5937
164 1 0.0285068 -2.57923 2.62369 -4.58842
165 1 2.65944 -5.26942 2.37781 -4.61441
166 1 2.89177 -2.5681 54.5721 -4.52718
167 1 1.3913 -3.66066 1.13109 -4.56456
168 1 1.31457 -1.07051 3.95761 -4.62482
169 1 3.91577 -3.82655 3.77424 -4.61966
170 1 4.22525 -1.34266 1.12357 -4.54649
171 1 5.45147 -5.29006 54.5815 -4.6001
172 1 5.47503 -2.53255 2.60888 -4.63114
173 1 8.09423 -5.16559 2.50826 -4.60503
174 1 7.96227 -2.2383 -0.147077 -4.50303
175 1 6.70524 -3.85844 1.1441 -4.59551
176 1 6.89264 -1.17736 3.95298 -4.56907
177 1 9.56783 -3.97189 3.75567 -4.53302
178 1 9.31973 -1.04729 1.20165 -4.53526
179 1 10.5064 -5.33583 -0.168255 -4.60173
180 1 10.6997 -2.51357 2.35592 -4.55713
181 1 13.5027 -5.42537 2.4357 -4.58881
182 1 13.096 -2.62961 -0.162977 -4.57076
183 1 11.9074 -4.17881 1.26984 -4.58925
184 1 11.9739 -1.36578 3.8879 -4.60497
185 1 14.797 -3.92934 3.69513 -4.60344
186 1 14.6993 -1.24647 0.992817 -4.57344
187 1 16.0618 -5.50784 54.5322 -4.45995
188 1 16.0813 -2.60413 2.24129 -4.57646
189 1 19.0555 -5.10217 2.37006 -4.60814
190 1 18.5004 -2.4801 54.4681 -4.72111
191 1 17.3725 -4.06083 1.06561 -4.62415
192 1 17.4386 -1.31929 3.70214 -4.63562
193 1 19.8715 -2.86798 2.45287 -3.54211
194 1 19.9124 -0.909573 0.884186 -4.14904
195 1 -20.6005 -1.09702 0.123946 -4.4336
196 1 -19.2809 0.322992 3.55063 -3.69655
197 1 -18.9518 2.65999 -0.101406 -4.42229
198 1 -19.2222 0.550283 1.17467 -4.52436
199 1 -19.6372 4.48178 4.5652 -3.61746
200 1 -17.5464 1.65607 4.30979 -4.64001
201 1 -17.4789 3.95345 1.35166 -4.6412
202 1 -16.3372 0.2189 54.2411 -4.60348
203 1 -16.1844 2.57867 2.69743 -4.52324
204 1 -13.5412 -0.100213 2.55323 -4.58751
205 1 -13.4761 2.48286 -0.101942 -4.56624
206 1 -15.0365 1.20786 1.25523 -4.51758
207 1 -14.8839 4.14611 3.98215 -4.52986
208 1 -12.1792 1.47778 3.68948 -4.55819
209 1 -11.947 3.92406 0.984723 -4.58625
210 1 -10.8539 -0.122651 54.5192 -4.57805
211 1 -10.6359 2.65936 2.34858 -4.576
212 1 -8.26779 -0.249013 2.50275 -4.60746
213 1 -7.87683 2.45246 54.5117 -4.60915
214 1 -9.45384 1.22282 1.00173 -4.60318
215 1 -9.45687 4.07765 3.93258 -4.57223
216 1 -6.95595 1.2129 3.9137 -4.57385
217 1 -6.67057 3.87823 1.26931 -4.60116
218 1 -5.34432 -0.103303 -0.0989128 -4.59246
219 1 -5.4391 2.60985 2.76906 -4.60466
220 1 -2.85435 0.0543591 2.61321 -4.57704
221 1 -2.45232 2.71156 -0.10509 -4.59523
222 1 -4.10109 1.48048 1.12961 -4.6091
223 1 -3.92982 4.06853 3.81997 -4.56603
224 1 -1.27721 1.2862 3.79481 -4.57686
225 1 -0.867528 3.83569 1.26079 -4.58335
226 1 0.102457 -0.0835088 54.6043 -4.56713
227 1 0.400999 2.57081 2.81852 -4.56405
228 1 2.91926 0.00457773 2.66462 -4.57944
229 1 2.80155 2.80844 -0.244022 -4.58322
230 1 1.54618 1.38686 1.17371 -4.59423
231 1 1.66601 4.11882 3.99062 -4.59564
232 1 4.15218 1.43354 4.05314 -4.58761
233 1 4.1854 4.24638 0.962914 -4.59834
234 1 5.65848 0.00853224 54.5326 -4.56114
235 1 5.30406 2.89585 2.55947 -4.59611
236 1 8.04021 0.34573 2.55931 -4.64182
237 1 8.11063 2.98759 54.5709 -4.62815
238 1 6.75337 1.68859 1.10116 -4.57628
239 1 6.82613 4.18021 3.85079 -4.62765
240 1 9.58258 1.61469 3.83067 -4.61977
241 1 9.50798 4.35876 1.06574 -4.59643
242 1 10.7572 0.265865 -0.00687154 -4.59238
243 1 10.8453 2.98205 2.48553 -4.5954
244 1 13.5351 -0.0727542 2.66984 -4.60333
245 1 13.4353 2.82597 -0.267489 -4.60302
246 1 12.2622 1.4206 1.30891 -4.59314
247 1 12.3074 4.16774 3.88714 -4.61386
248 1 14.7295 1.59995 3.83319 -4.57851
249 1 14.807 4.2181 1.01855 -4.61228
250 1 15.9832 0.57081 0.0707949 -4.53253
251 1 16.1137 3.16991 2.61275 -4.39239
252 1 18.7833 0.145024 2.54633 -4.56069
253 1 18.469 2.47296 54.1636 -4.47446
254 1 17.4955 1.81709 1.36565 -4.53465
255 1 17.7084 4.38796 3.85161 -4.81812
256 1 20.4647 0.982969 4.23109 -4.30866
257 1 20.2801 3.74442 0.0729751 -4.31932
258 1 20.554 1.43383 54.1717 -3.91892
259 1 -18.9249 5.4916 2.47468 -4.61315
260 1 -18.4762 8.06362 53.9633 -4.66962
261 1 -19.5002 6.42765 0.357529 -3.69997
262 1 -17.4101 6.77009 3.80063 -4.67289
263 1 -17.1016 9.31248 0.63098 -3.55969
264 1 -15.8328 5.24705 0.199833 -4.5516
265 1 -15.9334 8.0139 2.38899 -4.59763
266 1 -13.1673 5.12493 2.6362 -4.56274
267 1 -13.3308 7.99272 -0.375954 -4.60209
268 1 -14.3272 6.69254 1.33956 -4.59588
269 1 -14.901 9.27458 4.16596 -4.47326
270 1 -12.0212 6.71015 3.82363 -4.57291
271 1 -11.9292 9.28207 1.05614 -4.53739
272 1 -10.6618 5.39866 -0.237979 -4.59595
273 1 -10.6606 8.06723 2.49434 -4.60394
274 1 -8.07551 5.24687 2.53222 -4.59829
275 1 -7.83468 8.0771 -0.19594 -4.62216
276 1 -9.30044 6.66243 1.13443 -4.61019
277 1 -9.36502 9.34947 3.95491 -4.61324
278 1 -6.7826 6.53036 3.98848 -4.58907
279 1 -6.5683 9.38612 1.26456 -4.57741
280 1 -5.28297 5.17724 -0.145616 -4.61152
281 1 -5.33455 7.91639 2.51784 -4.55981
282 1 -2.37752 5.34144 2.44786 -4.56837
283 1 -2.77796 7.9529 -0.261775 -4.56909
284 1 -3.86491 6.54285 1.1502 -4.54345
285 1 -3.98075 9.36703 3.98729 -4.57166
286 1 -1.08772 6.68001 3.89876 -4.59961
287 1 -1.27464 9.29868 0.98174 -4.57655
288 1 0.259744 5.46798 -0.0909931 -4.58984
289 1 0.0251739 8.28618 2.62637 -4.59098
290 1 2.78485 5.49467 2.3631 -4.59574
291 1 2.94221 8.32265 -0.0536625 -4.55842
292 1 1.43638 7.04331 1.16258 -4.60222
293 1 1.55501 9.54929 3.94066 -4.57195
294 1 4.1707 6.82366 3.74775 -4.60605
295 1 4.33277 9.46354 1.33548 -4.58268
296 1 5.48395 5.78284 54.4888 -4.59324
297 1 5.7605 8.19063 2.73849 -4.55707
298 1 8.07577 5.55669 2.42298 -4.60733
299 1 8.15007 8.40822 54.5056 -4.63378
300 1 6.77796 7.03218 1.09138 -4.55576
301 1 7.13595 9.62707 4.12521 -4.59443
302 1 9.55564 6.92599 3.57456 -4.55803
303 1 9.61429 9.64997 1.03691 -4.58701
304 1 10.8467 5.75795 -0.296228 -4.61877
305 1 10.9678 8.40303 2.50931 -4.57428
306 1 13.4321 5.60523 2.33916 -4.62496
307 1 13.8537 8.42662 54.5702 -4.39378
308 1 12.2703 7.1663 1.0418 -4.61446
309 1 12.4388 9.67094 3.83659 -4.38072
310 1 14.8533 6.88923 3.61345 -4.62278
311 1 15.2588 9.83603 1.16683 -4.85454
312 1 16.2697 5.63773 -0.157117 -4.46652
313 1 16.4442 8.24876 2.52154 -4.34354
314 1 19.0307 4.82365 1.89407 -4.11546
315 1 18.9144 7.2249 54.0533 -3.81036
316 1 17.7825 6.71286 1.27115 -4.64503
317 1 17.6006 8.63543 4.57649 -4.12258
318 1 20.0026 5.38071 3.98706 -4.23156
319 1 -16.747 13.3856 4.94449 -4.16587
320 1 -15.6452 10.9443 -0.216843 -4.71763
321 1 -15.7031 13.8019 2.64097 -4.075
322 1 -13.35 10.2509 2.63026 -4.53331
323 1 -13.2216 13.0591 0.234953 -4.62595
324 1 -14.6369 11.8886 1.74336 -4.52676
325 1 -14.6878 14.6371 4.59066 -4.79689
326 1 -12.1204 11.8957 3.91617 -4.52796
327 1 -12.441 14.8487 1.35855 -4.63132
328 1 -10.652 10.5954 -0.339618 -4.55114
329 1 -11.0175 13.3311 2.49733 -4.5
330 1 -8.167 10.687 2.47345 -4.60657
331 1 -7.97618 13.5246 0.0753765 -4.59249
332 1 -9.5554 12.0337 1.09481 -4.56769
333 1 -9.43037 14.3387 4.05516 -4.54385
334 1 -6.7881 12.0365 3.89319 -4.57307
335 1 -6.43988 14.7432 1.43951 -4.56583
336 1 -5.20953 10.6398 -0.132849 -4.61834
337 1 -5.24698 13.093 2.55615 -4.56352
338 1 -2.50503 10.4997 2.59722 -4.62321
339 1 -2.41956 13.5253 0.10154 -4.59457
340 1 -3.75259 11.9519 1.21362 -4.62752
341 1 -3.7552 14.4677 3.93556 -4.53987
342 1 -1.23569 11.865 4.15063 -4.60118
343 1 -1.10583 14.7749 1.605 -4.57878
344 1 0.21844 10.7739 -0.235078 -4.57171
345 1 0.138993 13.1141 2.72701 -4.63026
346 1 2.93571 10.827 2.62393 -4.59527
347 1 2.72744 13.7538 0.112267 -4.5325
348 1 1.51596 12.0047 1.18973 -4.5556
349 1 1.40955 14.4906 4.09526 -4.57814
350 1 4.36837 12.1068 3.99024 -4.6021
351 1 4.21723 14.9212 1.29791 -4.51957
352 1 5.39205 10.8298 -0.230229 -4.56075
353 1 5.60735 13.6553 2.7111 -4.52485
354 1 8.3117 10.956 2.51973 -4.60962
355 1 7.84026 13.5862 -0.322344 -4.54962
356 1 6.80402 12.1847 1.22651 -4.59179
357 1 6.93811 14.8965 4.23731 -4.5777
358 1 9.56786 12.4487 3.8099 -4.39797
359 1 9.4083 14.791 0.791892 -4.39352
360 1 10.9502 11.1798 54.4086 -4.38031
361 1 10.9883 13.9427 2.41396 -4.78038
362 1 13.702 11.2999 2.60816 -4.6528
363 1 13.3892 13.2469 53.7091 -4.11866
364 1 12.3753 12.5276 1.01744 -4.70084
365 1 11.9489 14.7413 4.51184 -4.1581
366 1 15.1317 12.166 4.44776 -4.17196
367 1 14.2551 14.1555 0.975781 -4.31367
368 1 16.3558 10.5891 53.8901 -4.23337
369 1 15.6595 12.8039 2.20209 -4.33283
370 1 17.1653 11.2174 1.26325 -3.44732
371 1 -14.2198 15.7326 2.50326 -4.15391
372 1 -13.2936 16.5815 4.59537 -4.1369
373 1 -9.7071 16.933 54.4041 -4.33175
374 1 -8.07435 15.7949 2.79558 -4.65152
375 1 -8.2733 18.8217 0.21216 -4.08187
376 1 -9.44331 17.5121 2.01487 -4.3118
377 1 -6.63777 16.8445 4.4094 -4.6807
378 1 -7.69914 19.2147 2.55055 -4.26652
379 1 -5.25991 16.2017 -0.108657 -4.56597
380 1 -5.57512 18.2863 2.86624 -4.6598
381 1 -2.7393 16.1573 2.61802 -4.57958
382 1 -2.34094 18.9023 0.101155 -4.6024
383 1 -4.02486 17.6186 1.17205 -4.45373
384 1 -4.38919 19.3667 4.56535 -3.66651
385 1 -1.38612 17.3709 4.0768 -4.40452
386 1 -0.551474 19.7658 1.26242 -3.71035
387 1 0.05709 15.9397 -0.0412065 -4.59091
388 1 0.328527 18.2322 2.80515 -4.71528
389 1 2.69204 15.9677 2.68959 -4.62649
390 1 2.99314 19.0115 0.314124 -4.69563
391 1 1.52607 17.2764 1.15261 -4.46101
392 1 1.42635 19.8993 3.99984 -4.58219
393 1 4.01104 17.2774 4.05796 -4.65647
394 1 3.03402 20.4368 2.30558 -4.17541
395 1 5.4345 16.4876 -0.125587 -4.41004
396 1 5.00277 19.0131 2.88637 -4.385
397 1 8.40966 16.7241 1.75338 -4.59851
398 1 9.62759 18.5167 0.777422 -4.39557
399 1 6.52741 18.0338 1.25173 -4.41542
400 1 5.48561 19.7906 5.02404 -3.66187
401 1 8.53638 16.6778 4.05275 -4.53102
402 1 10.6412 15.9553 53.8463 -4.63671
403 1 12.7987 15.5778 2.25929 -4.30715
404 1 11.5793 17.1442 0.797562 -3.64338
405 1 1.43496 21.0716 0.780179 -4.19866
406 1 -12.7605 -16.7379 4.97895 -4.04825
407 1 -7.99222 -18.6345 4.72467 -3.50699
408 1 -9.22194 -17.3082 9.62629 -3.67619
409 1 -5.71413 -19.938 9.93245 -3.94588
410 1 -6.61742 -17.5784 6.49825 -4.50685
411 1 -5.16852 -18.9373 7.8859 -4.6386
412 1 -2.59637 -18.8471 5.40552 -4.40468
413 1 -3.12472 -19.9403 7.41609 -3.60949
414 1 -4.14639 -17.4355 9.28523 -4.67165
415 1 -1.52359 -20.3672 9.10878 -4.47159
416 1 -1.27562 -17.4563 6.87907 -4.61753
417 1 1.00787 -21.3866 3.76219 -4.03142
418 1 -0.00446672 -19.1295 7.84897 -4.45559
419 1 2.61427 -18.806 4.89778 -4.61884
420 1 0.787886 -20.0585 5.7082 -4.33466
421 1 1.22976 -17.6007 9.11967 -4.50169
422 1 5.01916 -19.7397 9.55946 -3.99994
423 1 3.93788 -17.5161 6.43052 -4.48749
424 1 5.59501 -18.706 7.5992 -4.71646
425 1 8.15685 -18.3414 4.38672 -4.45048
426 1 7.59623 -19.2991 6.48428 -3.4891
427 1 6.83904 -17.233 8.83659 -4.703
428 1 9.45364 -17.8304 6.349 -4.43048
429 1 13.0065 -16.4855 9.85106 -4.09785
430 1 -17.5 -10.9662 6.98331 -3.65088
431 1 -16.2327 -12.9233 7.48721 -3.75653
432 1 -13.3698 -15.3782 6.70951 -4.21766
433 1 -13.3766 -13.4298 5.26526 -4.69179
434 1 -15.4483 -14.5266 5.9268 -4.33756
435 1 -14.7104 -11.9671 8.84932 -4.70657
436 1 -12.148 -14.9184 8.84275 -4.46387
437 1 -11.797 -12.0289 6.47086 -4.44908
438 1 -10.5089 -16.4037 4.68556 -4.07459
439 1 -10.5576 -13.6391 7.75412 -4.58167
440 1 -8.07129 -16.3261 7.86395 -4.6712
441 1 -7.93698 -13.6076 5.28303 -4.56273
442 1 -9.36421 -15.0873 6.33655 -4.5485
443 1 -9.52768 -12.0436 9.2491 -4.56305
444 1 -6.77693 -14.6864 9.11268 -4.61292
445 1 -6.75376 -12.2232 6.68448 -4.54537
446 1 -5.37331 -15.9829 5.21628 -4.66756
447 1 -5.24885 -13.405 7.98354 -4.60197
448 1 -2.85206 -16.1163 7.88651 -4.53334
449 1 -2.53739 -13.3617 5.01482 -4.59935
450 1 -3.93454 -14.6453 6.44791 -4.57168
451 1 -4.16066 -11.9248 9.40709 -4.61441
452 1 -1.4622 -14.7513 9.10444 -4.60197
453 1 -1.29414 -12.1345 6.61242 -4.6045
454 1 -0.235602 -16.0507 5.31946 -4.57011
455 1 0.15519 -13.4957 7.87663 -4.61503
456 1 2.60214 -16.2347 7.81714 -4.58546
457 1 2.66463 -13.3654 5.15664 -4.58805
458 1 1.43595 -14.8269 6.47549 -4.58251
459 1 1.35346 -12.0855 9.27269 -4.5703
460 1 3.9665 -14.8501 9.23537 -4.59383
461 1 4.03634 -11.8709 6.40326 -4.58793
462 1 5.28384 -16.133 4.95462 -4.54104
463 1 5.14455 -13.4362 7.86432 -4.57637
464 1 8.32028 -15.9534 7.41984 -4.57277
465 1 7.74037 -13.1556 5.39895 -4.50201
466 1 6.46337 -14.7302 6.47129 -4.5322
467 1 6.53732 -12.1118 9.1733 -4.63833
468 1 9.50754 -14.5805 8.99603 -4.56874
469 1 9.26554 -11.8736 6.62236 -4.57805
470 1 10.6959 -16.0808 5.09497 -4.46885
471 1 10.8214 -13.2651 7.70496 -4.56189
472 1 13.9879 -15.7362 7.69246 -4.1767
473 1 13.5546 -13.3346 4.91825 -4.56302
474 1 12.2462 -14.708 6.34912 -4.52302
475 1 11.838 -11.9579 9.44691 -4.41533
476 1 14.0295 -14.2943 9.70723 -4.75135
477 1 14.8014 -12.0662 6.43571 -4.47998
478 1 15.5291 -13.9465 7.82547 -4.12087
479 1 16.3636 -13.5212 9.98193 -4.09504
480 1 -18.6418 -7.76287 4.79612 -3.84058
481 1 -19.3623 -6.15558 9.9726 -3.62429
482 1 -17.5292 -9.65197 8.86108 -4.64738
483 1 -17.702 -6.54072 6.56262 -4.63252
484 1 -16.181 -10.9251 5.09058 -4.5345
485 1 -16.1454 -8.17464 7.60868 -4.55713
486 1 -13.3334 -10.6492 7.54532 -4.62122
487 1 -13.6043 -7.87492 4.97426 -4.51947
488 1 -14.8308 -9.49654 6.15603 -4.58161
489 1 -15.3398 -6.49936 9.19352 -4.51352
490 1 -12.2536 -9.27398 9.08925 -4.60703
491 1 -12.4079 -6.71497 6.44276 -4.5167
492 1 -10.7523 -10.5981 5.036 -4.56914
493 1 -10.8699 -7.8023 7.83932 -4.59464
494 1 -8.05422 -10.7372 7.97865 -4.61126
495 1 -8.15551 -8.12697 5.2404 -4.64966
496 1 -9.50663 -9.4032 6.62094 -4.62344
497 1 -9.60287 -6.60158 9.3545 -4.60982
498 1 -6.91288 -9.23047 9.38438 -4.60738
499 1 -6.77011 -6.74912 6.58596 -4.60778
500 1 -5.62344 -10.7507 5.3816 -4.56573
501 1 -5.32992 -7.96019 7.99015 -4.56552
502 1 -2.7422 -10.7246 7.9425 -4.60092
503 1 -2.79767 -7.87629 5.10655 -4.62438
504 1 -4.10182 -9.31932 6.50944 -4.6052
505 1 -4.34005 -6.53598 9.50609 -4.55198
506 1 -1.42347 -9.23689 9.31435 -4.61918
507 1 -1.43208 -6.65938 6.62856 -4.58417
508 1 -0.096192 -10.5902 5.40647 -4.57121
509 1 -0.00507491 -7.89215 8.01352 -4.56243
510 1 2.8438 -10.6677 7.96917 -4.60582
511 1 2.64258 -8.15931 5.1397 -4.59731
512 1 1.30611 -9.35321 6.74403 -4.61284
513 1 1.32472 -6.6394 9.30546 -4.57971
514 1 4.20832 -9.20683 9.17556 -4.58715
515 1 3.89832 -6.51964 6.30556 -4.6011
516 1 5.43239 -10.6778 5.01416 -4.5703
517 1 5.28084 -7.7079 7.77331 -4.57261
518 1 8.02396 -10.6311 8.06413 -4.59364
519 1 7.91957 -7.91286 5.33294 -4.61236
520 1 6.63193 -9.31503 6.64024 -4.616
521 1 6.71984 -6.59249 9.19754 -4.57622
522 1 9.32139 -9.22242 9.38646 -4.6176
523 1 9.42433 -6.64398 6.6668 -4.60125
524 1 10.7628 -10.315 5.52341 -4.56916
525 1 10.7443 -7.90117 8.14359 -4.60592
526 1 13.3891 -10.8996 7.92693 -4.4996
527 1 13.6157 -7.81213 5.4708 -4.56514
528 1 12.2718 -9.18044 6.86647 -4.58986
529 1 12.1898 -6.65705 9.49727 -4.61516
530 1 15.0443 -9.56147 9.25799 -4.49662
531 1 15.1428 -6.54029 6.69123 -4.59818
532 1 16.0443 -10.7082 4.88428 -4.57037
533 1 16.4572 -8.07869 7.91706 -4.61164
534 1 18.6379 -7.37881 5.03034 -3.88686
535 1 17.387 -9.15513 6.00272 -3.76175
536 1 17.8504 -6.69208 9.22725 -4.66208
537 1 19.514 -5.75735 6.35894 -3.64716
538 1 -18.9024 -5.01014 7.95599 -4.58691
539 1 -18.6081 -2.58753 5.55842 -4.56994
540 1 -20.2993 -3.57977 6.7037 -4.12754
541 1 -21.2988 -2.20535 8.33269 -3.64576
542 1 -17.7526 -3.51481 9.38006 -4.50382
543 1 -17.6519 -1.0278 7.00403 -4.3857
544 1 -16.4069 -5.22654 5.12831 -4.49086
545 1 -16.2481 -2.50418 8.01888 -4.56819
546 1 -13.7618 -5.35659 7.79579 -4.60731
547 1 -13.521 -2.65999 5.25524 -4.62184
548 1 -15.0721 -3.89597 6.49741 -4.58731
549 1 -14.915 -1.09509 9.37677 -4.60591
550 1 -12.3613 -3.97564 9.04323 -4.57226
551 1 -12.169 -1.29711 6.63673 -4.60675
552 1 -10.8353 -5.39122 5.33818 -4.58942
553 1 -10.7238 -2.51441 8.18597 -4.57044
554 1 -8.0875 -5.40366 7.93194 -4.60821
555 1 -8.164 -2.75205 5.38478 -4.59572
556 1 -9.55809 -4.02864 6.81511 -4.60633
557 1 -9.38001 -1.16383 9.58605 -4.59242
558 1 -6.86075 -3.98722 9.33 -4.59419
559 1 -6.75113 -1.3409 6.76082 -4.60489
560 1 -5.55769 -5.2293 5.14691 -4.61814
561 1 -5.46925 -2.59294 8.14431 -4.57311
562 1 -3.07128 -5.40641 7.83319 -4.57691
563 1 -2.63811 -2.51465 5.24457 -4.5281
564 1 -4.17642 -3.87219 6.57775 -4.58594
565 1 -4.14724 -1.18533 9.49101 -4.59517
566 1 -1.63206 -4.09344 9.16087 -4.56142
567 1 -1.36572 -1.32827 6.69303 -4.58403
568 1 -0.00330359 -5.41382 5.19651 -4.59835
569 1 0.0124704 -2.6367 8.14957 -4.61581
570 1 2.68727 -5.23864 7.95478 -4.6007
571 1 2.64662 -2.4606 5.30364 -4.64372
572 1 1.19247 -3.89654 6.51065 -4.59419
573 1 1.34782 -1.2581 9.48452 -4.52788
574 1 4.04659 -4.05253 9.4509 -4.6172
575 1 4.16311 -1.23419 6.68064 -4.56789
576 1 5.3687 -5.13757 5.05939 -4.64723
577 1 5.36974 -2.66304 8.10042 -4.60795
578 1 8.05258 -5.15121 7.99872 -4.60332
579 1 8.22314 -2.7775 5.16059 -4.59144
580 1 6.67505 -3.91392 6.59538 -4.58095
581 1 6.87206 -1.43617 9.51491 -4.59508
582 1 9.64621 -4.04528 9.27212 -4.55018
583 1 9.23513 -1.29937 6.64534 -4.60082
584 1 10.7169 -5.27005 5.36565 -4.54999
585 1 10.8358 -2.5348 7.88913 -4.61842
586 1 13.5198 -5.41489 7.96997 -4.63272
587 1 13.3683 -2.81625 5.17036 -4.57523
588 1 12.14 -4.05101 6.58849 -4.53584
589 1 12.1794 -1.23369 9.40119 -4.59537
590 1 14.9039 -4.05489 9.36055 -4.54063
591 1 14.7993 -1.39149 6.54078 -4.56709
592 1 16.2018 -5.00528 5.21824 -4.44437
593 1 16.4465 -2.781 7.7409 -4.31539
594 1 19.0794 -4.7671 8.44561 -3.79764
595 1 19.2469 -2.39666 4.68917 -4.37447
596 1 18.0281 -3.88094 6.32009 -4.97613
597 1 17.4394 -1.15052 9.13164 -4.42923
598 1 20.4505 -2.44527 9.66373 -3.80261
599 1 20.264 -0.603638 5.9758 -4.37131
600 1 -21.1045 -0.257033 6.95447 -4.35963
601 1 -19.1557 0.277676 8.26034 -4.97439
602 1 -18.7136 2.8975 5.94093 -4.57586
603 1 -20.4215 2.06037 7.29164 -4.32506
604 1 -20.0827 3.62544 9.04042 -3.62373
605 1 -17.6535 1.68358 9.49507 -4.50138
606 1 -17.5503 4.71123 7.12118 -4.96904
607 1 -16.3079 0.0131375 5.4904 -4.58944
608 1 -16.1446 2.94724 8.08414 -4.39588
609 1 -13.5017 0.183039 8.00156 -4.64101
610 1 -13.3983 2.61937 5.28788 -4.55614
611 1 -14.9513 1.43397 6.69535 -4.59912
612 1 -14.82 4.24872 9.50546 -4.62795
613 1 -12.0132 1.60859 9.21246 -4.57408
614 1 -12.358 4.20222 6.65718 -4.58324
615 1 -10.9703 0.107559 5.12337 -4.60556
616 1 -10.7269 3.01594 7.82625 -4.59539
617 1 -8.1763 0.113971 8.03752 -4.59397
618 1 -8.20859 2.70752 5.31362 -4.64121
619 1 -9.5669 1.35987 6.65608 -4.58757
620 1 -9.38527 4.13086 9.3471 -4.53167
621 1 -6.8015 1.32519 9.45984 -4.58338
622 1 -6.72316 3.94854 6.64301 -4.56894
623 1 -5.56234 0.0890754 5.37357 -4.59108
624 1 -5.46443 2.69984 8.03597 -4.59209
625 1 -2.63081 0.0207802 8.16471 -4.60717
626 1 -2.6495 2.52589 5.18587 -4.58489
627 1 -4.05766 1.25726 6.71694 -4.59024
628 1 -3.97676 3.98306 9.32004 -4.57072
629 1 -1.21987 1.39931 9.53096 -4.59608
630 1 -1.33631 3.8642 6.45037 -4.52065
631 1 -0.0288279 0.116546 5.47614 -4.61835
632 1 -0.0776107 2.8629 8.13784 -4.58715
633 1 2.50316 -0.065457 7.89704 -4.55989
634 1 2.86023 2.68261 5.49544 -4.59023
635 1 1.29539 1.56736 6.80438 -4.56896
636 1 1.4651 3.96495 9.50759 -4.58417
637 1 4.01309 1.20935 9.20097 -4.57451
638 1 4.24795 4.20355 6.61143 -4.61499
639 1 5.59764 0.0455348 5.36532 -4.59502
640 1 5.40517 2.84756 8.051 -4.59975
641 1 7.90978 0.108043 8.10832 -4.54978
642 1 8.14629 2.82079 5.26189 -4.58183
643 1 6.81517 1.57808 6.66058 -4.58684
644 1 6.84575 4.23277 9.34674 -4.57116
645 1 9.34292 1.34041 9.41361 -4.58872
646 1 9.71006 3.96835 6.52925 -4.56276
647 1 10.6327 0.00983745 5.20101 -4.56709
648 1 10.8176 2.69645 8.13901 -4.59861
649 1 13.5033 -0.00511481 7.86262 -4.55453
650 1 13.4885 2.85227 5.4035 -4.60559
651 1 12.1391 1.37838 6.64552 -4.58116
652 1 12.1908 3.95122 9.5742 -4.59466
653 1 14.6626 1.29133 9.35978 -4.5692
654 1 14.829 4.18205 6.73791 -4.54834
655 1 16.0512 0.0340587 5.06061 -4.61817
656 1 16.0414 2.72492 8.14052 -4.37805
657 1 18.6411 0.179631 7.57773 -4.63313
658 1 18.716 2.43676 4.72013 -4.52165
659 1 17.2258 1.68668 6.38489 -4.59665
660 1 17.4858 4.166 9.34919 -4.90899
661 1 20.279 1.36717 8.79972 -4.39469
662 1 20.2517 3.90526 5.89373 -4.40987
663 1 21.2825 1.58326 6.51077 -3.99761
664 1 -19.2706 5.76175 8.48504 -4.20772
665 1 -18.1402 8.03184 5.5896 -3.53725
666 1 -19.3007 6.1 6.23246 -4.4409
667 1 -17.6559 7.07016 9.59447 -5.09428
668 1 -17.3628 9.94034 6.82417 -4.51021
669 1 -16.1532 5.49033 5.40722 -4.40475
670 1 -16.1242 8.52597 8.25705 -4.41464
671 1 -13.6251 5.56527 8.05658 -4.58144
672 1 -13.3397 8.11367 5.3289 -4.5378
673 1 -14.8686 7.10525 6.71708 -4.58708
674 1 -14.6768 9.41982 9.9236 -4.60161
675 1 -12.0465 6.70142 9.41497 -4.56055
676 1 -11.9421 9.29093 6.83452 -4.59421
677 1 -10.8118 5.4041 5.37034 -4.61919
678 1 -10.6094 7.95348 8.22415 -4.56547
679 1 -7.94497 5.35937 8.15699 -4.57286
680 1 -7.99956 7.98297 5.35148 -4.57718
681 1 -9.36298 6.60951 6.80023 -4.60177
682 1 -9.56188 9.44446 9.59124 -4.53957
683 1 -6.63403 6.67408 9.496 -4.57834
684 1 -6.82718 9.40969 6.68589 -4.59298
685 1 -5.24206 5.2163 5.33762 -4.60007
686 1 -5.35954 8.21701 8.10012 -4.59455
687 1 -2.66735 5.23163 7.89298 -4.60841
688 1 -2.60986 7.95832 5.2053 -4.61522
689 1 -4.08927 6.76791 6.70811 -4.60653
690 1 -4.00754 9.53833 9.59934 -4.63166
691 1 -1.4825 6.70551 9.41603 -4.56165
692 1 -1.35523 9.23343 6.80057 -4.60586
693 1 0.181743 5.30136 5.36193 -4.60739
694 1 0.0905294 7.92915 8.08995 -4.60554
695 1 2.77383 5.3627 8.1581 -4.60829
696 1 2.88002 8.13093 5.30667 -4.61482
697 1 1.55043 6.76096 6.6859 -4.58859
698 1 1.35257 9.17265 9.67943 -4.53267
699 1 4.16378 6.65166 9.44029 -4.60891
700 1 4.27617 9.38765 6.77889 -4.61228
701 1 5.5246 5.61289 5.22033 -4.60507
702 1 5.59872 7.98279 8.13363 -4.60724
703 1 8.48548 5.37034 7.99539 -4.57149
704 1 8.4456 8.10935 5.27613 -4.63868
705 1 7.10541 6.7607 6.66353 -4.57816
706 1 6.89233 9.5228 9.47859 -4.60109
707 1 9.49857 6.78138 9.44334 -4.55642
708 1 9.79928 9.6488 6.51407 -4.58106
709 1 10.7617 5.44266 5.04146 -4.61804
710 1 10.8029 8.06122 7.97332 -4.57886
711 1 13.2698 5.32041 8.01589 -4.59849
712 1 13.5954 8.18806 5.25746 -4.50589
713 1 12.0383 6.74249 6.56674 -4.57568
714 1 12.2149 9.55797 9.3043 -4.60636
715 1 14.6035 6.74573 9.3251 -4.62163
716 1 14.7548 9.41551 6.80795 -4.65521
717 1 15.9265 5.32915 5.10125 -4.14325
718 1 16.1303 8.08925 8.18793 -4.37951
719 1 18.2965 4.82758 7.17447 -4.11202
720 1 19.5743 7.45356 5.18657 -4.09897
721 1 17.3499 6.91202 6.19556 -5.31184
722 1 17.4922 9.54494 9.44091 -4.4172
723 1 19.3712 6.84464 7.47108 -4.12363
724 1 -16.798 11.7456 8.37409 -4.12004
725 1 -15.9148 11.1676 5.28229 -4.43582
726 1 -16.1719 13.8733 7.21802 -4.22
727 1 -13.1388 10.5925 8.35861 -4.41674
728 1 -13.0346 13.1397 5.70263 -3.96298
729 1 -14.7374 11.8474 7.12377 -4.98248
730 1 -14.2525 14.8735 8.13033 -4.04008
731 1 -11.8061 12.2464 9.2471 -4.60935
732 1 -12.0905 14.8676 6.97601 -5.43229
733 1 -10.7694 10.6536 5.2298 -4.55877
734 1 -10.3595 13.5929 8.09108 -4.35359
735 1 -8.19428 10.6255 8.19359 -4.57286
736 1 -7.84148 13.3542 5.55278 -4.52946
737 1 -9.3505 11.9583 6.68532 -4.59372
738 1 -9.30372 15.0657 9.55702 -4.62808
739 1 -6.74275 12.0906 9.50829 -4.59383
740 1 -6.54933 14.7701 6.80205 -4.52075
741 1 -5.49565 10.6667 5.20635 -4.56136
742 1 -5.26736 13.4112 8.24886 -4.54
743 1 -2.66921 10.7431 8.1003 -4.57143
744 1 -2.72054 13.1484 5.4959 -4.58102
745 1 -4.2274 11.7918 6.79825 -4.54947
746 1 -3.97468 14.6049 9.60289 -4.50476
747 1 -1.28922 11.847 9.61452 -4.59391
748 1 -1.39074 14.5402 6.98857 -4.56475