ITEM: TIMESTEP
360000
ITEM: NUMBER OF ATOMS
4050
ITEM: BOX BOUNDS ss ss pp
-2.0104689667703042e+01 2.0321163255423741e+01
-1.9993843430845079e+01 2.0208713197842414e+01
-4.8879000000000010e+00 5.9197899999999997e+01
ITEM: ATOMS id type x y z c_peratom
1 1 -11.077 -14.707 -2.33309 -4.17686
2 1 -7.73443 -17.2999 -4.73666 -4.18849
3 1 -8.60715 -16.2385 -0.972635 -4.56384
4 1 -6.94712 -17.8251 -1.08013 -3.68063
5 1 -5.864 -16.1648 -3.76982 -4.96618
6 1 -4.8213 -17.5478 -2.10795 -4.30768
7 1 -2.46644 -17.4119 58.8802 -4.50661
8 1 -4.66538 -18.1335 -4.42062 -4.092
9 1 -3.58664 -16.3571 -0.547034 -4.3892
10 1 -0.697486 -19.1068 0.0292993 -4.29603
11 1 -1.43049 -16.2077 -3.44172 -4.47777
12 1 0.429057 -18.736 -3.18256 -4.08857
13 1 -0.584659 -17.393 -1.54753 -4.59427
14 1 2.98881 -17.4048 -4.52369 -4.56444
15 1 2.70473 -19.3563 -3.1729 -4.34278
16 1 1.07114 -15.9358 -0.598569 -4.61326
17 1 3.23749 -18.676 -1.00225 -4.23731
18 1 3.96248 -15.8309 -3.22525 -4.61373
19 1 5.19973 -17.3885 -1.93917 -4.43859
20 1 6.61902 -17.7467 -3.8246 -4.31948
21 1 9.19644 -16.4532 -1.09995 -4.26044
22 1 6.08959 -16.1773 -0.19937 -4.49509
23 1 8.45584 -16.2257 -3.31508 -4.15214
24 1 10.5563 -14.9859 0.0795076 -4.59962
25 1 -14.5466 -12.3726 -2.89467 -4.13728
26 1 -14.5018 -13.6889 -0.680236 -4.17247
27 1 -12.7413 -15.2865 -0.852951 -4.32229
28 1 -12.2075 -13.5221 57.9855 -4.41137
29 1 -12.6575 -13.5438 -3.59512 -4.49285
30 1 -13.9146 -11.3039 -0.683912 -4.22686
31 1 -11.3401 -13.2994 -0.271506 -5.07473
32 1 -11.282 -11.5238 -3.55336 -4.48462
33 1 -9.12537 -15.3679 58.7558 -4.16888
34 1 -9.90881 -12.7254 -2.09947 -4.41968
35 1 -7.27064 -14.7427 -2.17062 -4.36636
36 1 -6.94046 -12.3174 -4.94766 -4.54848
37 1 -8.48179 -13.6683 -3.8587 -4.35649
38 1 -8.59303 -11.1382 -0.06266 -4.06971
39 1 -6.22528 -13.8332 -0.262235 -4.41744
40 1 -5.96302 -10.967 -3.3509 -4.47157
41 1 -4.59828 -15.0258 58.6567 -4.3632
42 1 -4.86961 -12.5471 -1.8947 -4.47316
43 1 -2.57698 -14.8562 -1.97083 -4.48446
44 1 -2.07115 -12.4372 59.0609 -4.53469
45 1 -3.69291 -13.6894 -3.68236 -4.4647
46 1 -3.5636 -11.4125 -0.252064 -4.49815
47 1 -1.194 -13.6846 -0.393934 -4.44582
48 1 -0.959094 -11.08 -3.36099 -4.52476
49 1 0.123619 -15.1092 59.2205 -4.56367
50 1 0.227945 -12.4162 -1.82292 -4.50921
51 1 2.63277 -14.5958 -1.87211 -4.46729
52 1 2.657 -12.2653 59.0997 -4.54332
53 1 1.34363 -13.6031 -3.58384 -4.51894
54 1 1.33359 -11.0818 -0.136948 -4.48103
55 1 3.86592 -13.5069 -0.159162 -4.51049
56 1 3.86836 -11.0552 -3.36934 -4.47168
57 1 5.07668 -14.6131 -4.83697 -4.56868
58 1 5.15675 -12.206 -1.67126 -4.46369
59 1 7.51947 -14.849 -1.66525 -4.97857
60 1 7.64181 -12.2145 59.1655 -4.38044
61 1 6.31551 -13.4195 -3.37369 -4.32542
62 1 6.3143 -10.9561 -0.0473754 -4.55802
63 1 8.83135 -13.3556 -0.34022 -4.49644
64 1 8.52356 -10.9903 -3.02758 -4.49053
65 1 9.83585 -15.2284 -5.02099 -4.20355
66 1 10.1155 -11.8344 -1.58913 -4.26145
67 1 12.0311 -14.3177 -1.72076 -4.21133
68 1 11.4266 -11.7178 -4.51959 -4.3774
69 1 10.3675 -13.552 -3.3758 -4.84841
70 1 11.278 -10.759 0.352633 -4.50885
71 1 13.7385 -12.7807 -1.00329 -3.99337
72 1 13.4706 -10.83 -2.27594 -4.98164
73 1 15.4501 -12.2251 -2.70273 -4.11607
74 1 15.5873 -10.1738 -1.4163 -4.00121
75 1 -17.2117 -7.48451 58.755 -4.20964
76 1 -18.4578 -5.57615 0.806741 -4.23084
77 1 -16.1211 -8.37947 0.310145 -3.62235
78 1 -16.3554 -6.37824 -3.26196 -4.36264
79 1 -14.5061 -10.5489 -4.48993 -4.31782
80 1 -15.0791 -7.71308 -1.7161 -4.49332
81 1 -12.0795 -10.258 -1.75718 -4.55269
82 1 -12.152 -7.34928 -4.30567 -4.54926
83 1 -13.502 -8.9197 -3.13953 -4.63079
84 1 -13.6406 -6.55972 -0.277847 -4.43597
85 1 -11.2184 -8.81388 -0.180226 -4.43371
86 1 -10.8464 -5.95183 -2.84036 -4.53914
87 1 -9.59853 -10.0972 59.3719 -4.43284
88 1 -9.66772 -7.37486 -1.30169 -4.5581
89 1 -7.35361 -10.0137 -1.74694 -4.5769
90 1 -7.26037 -7.51339 -4.70227 -4.47798
91 1 -8.72738 -8.6578 -3.17862 -4.49207
92 1 -8.3186 -6.03301 0.0570918 -4.50686
93 1 -5.97462 -8.62608 -0.236297 -4.50987
94 1 -6.24838 -6.11214 -3.01221 -4.5716
95 1 -4.49847 -9.98059 59.2329 -4.46542
96 1 -4.71366 -7.3988 -1.81785 -4.47409
97 1 -2.26637 -10.0456 -1.76373 -4.41743
98 1 -2.21836 -7.18958 -4.80189 -4.52675
99 1 -3.43089 -8.56179 -3.39047 -4.51185
100 1 -3.6629 -6.2496 0.0646248 -4.41692
101 1 -1.45341 -8.66751 -0.115124 -4.44708
102 1 -1.08193 -6.02707 -3.05709 -4.49316
103 1 0.293276 -9.71403 59.3042 -4.51404
104 1 0.0402241 -7.4004 -1.52626 -4.5437
105 1 2.65866 -9.84423 -1.74167 -4.52104
106 1 2.63009 -7.24351 -5.00994 -4.44822
107 1 1.48257 -8.37413 -3.24115 -4.48047
108 1 1.45678 -6.15199 -0.0297973 -4.47397
109 1 3.81629 -8.54853 -0.0727912 -4.51598
110 1 3.75186 -5.93238 -3.40519 -4.45546
111 1 5.02376 -9.72973 59.0835 -4.44983
112 1 4.96181 -7.17599 -1.66686 -4.47411
113 1 7.5675 -9.55445 -1.37752 -4.45144
114 1 7.46982 -7.33837 59.389 -4.53111
115 1 6.20314 -8.57641 -3.11017 -4.44346
116 1 6.2162 -6.01809 0.0660259 -4.45785
117 1 8.79886 -8.43563 0.28402 -4.46162
118 1 8.64162 -5.91508 -3.2153 -4.52127
119 1 9.96548 -9.82444 -4.32463 -4.43722
120 1 9.71035 -7.03699 -1.42659 -4.43198
121 1 12.2714 -9.17464 -1.05038 -4.45189
122 1 12.1301 -7.26517 -4.66927 -4.4875
123 1 11.0248 -8.38652 -2.89508 -4.47585
124 1 11.1042 -5.81673 0.232801 -4.42695
125 1 13.823 -7.92885 0.127618 -4.59178
126 1 13.2726 -5.89302 -3.13781 -4.64243
127 1 14.1183 -9.70997 -4.27182 -4.51157
128 1 14.8821 -7.04077 -1.83516 -4.66285
129 1 16.3537 -6.14761 -4.51641 -4.2998
130 1 15.9199 -8.66639 -3.17796 -4.2464
131 1 16.3233 -5.42589 -0.746639 -4.45501
132 1 18.0778 -4.69124 -4.6049 -3.88761
133 1 -17.9525 -5.2202 -1.69459 -4.10461
134 1 -17.2884 -2.48187 -4.42675 -4.99789
135 1 -18.5227 -3.0555 -2.37637 -4.22046
136 1 -17.3245 -1.84499 -0.726357 -4.61282
137 1 -16.3395 -4.70027 0.036192 -4.37733
138 1 -15.9896 -0.786429 -3.58453 -4.55508
139 1 -14.68 -5.03372 -4.19435 -4.59167
140 1 -15.2249 -2.0206 -1.76194 -4.42345
141 1 -12.4233 -4.93339 -1.46954 -4.59269
142 1 -12.4081 -2.4997 -4.71791 -4.38972
143 1 -13.7256 -3.48537 -2.8322 -4.40657
144 1 -13.6993 -1.35418 -0.0572294 -4.37706
145 1 -11.1031 -3.81145 0.185109 -4.53286
146 1 -11.0556 -1.34671 -3.09583 -4.43786
147 1 -9.77885 -4.96387 -4.69595 -4.44801
148 1 -9.82047 -2.38055 -1.3599 -4.44499
149 1 -7.36159 -4.58187 -1.54822 -4.45681
150 1 -7.50483 -2.14351 59.2646 -4.44477
151 1 -8.63282 -3.44919 -3.269 -4.42907
152 1 -8.33018 -1.02908 -0.0908681 -4.48011
153 1 -5.83831 -3.62012 0.0286545 -4.48616
154 1 -5.97934 -1.23992 -3.33047 -4.48763
155 1 -5.07038 -4.85271 59.4459 -4.47713
156 1 -4.73983 -2.10938 -1.51368 -4.4645
157 1 -2.4118 -4.8746 -1.44671 -4.51973
158 1 -2.42858 -2.34644 -4.6721 -4.43188
159 1 -3.64268 -3.5444 -3.04288 -4.51299
160 1 -3.43296 -0.999403 0.157731 -4.4664
161 1 -1.23318 -3.65812 0.194775 -4.51541
162 1 -1.00971 -1.0704 -3.05377 -4.38593
163 1 0.186363 -4.83306 -4.68165 -4.41747
164 1 -0.0164918 -2.26222 -1.30639 -4.49671
165 1 2.61796 -4.70752 -1.6351 -4.48192
166 1 2.48923 -2.14151 -4.64338 -4.44797
167 1 1.1791 -3.44059 -2.98179 -4.49971
168 1 1.26214 -0.871816 0.0694923 -4.5199
169 1 3.62272 -3.39997 0.0557039 -4.47595
170 1 3.70977 -0.836801 -3.13218 -4.50562
171 1 5.11586 -4.5191 -4.8879 -4.52388
172 1 4.89853 -2.01467 -1.41769 -4.51849
173 1 7.42036 -4.71424 -1.58867 -4.45133
174 1 7.41613 -1.92034 -4.56938 -4.50163
175 1 6.23858 -3.29647 -3.03494 -4.45877
176 1 6.20619 -0.837203 0.172973 -4.47574
177 1 8.76726 -3.61342 0.189622 -4.45824
178 1 8.73475 -0.872611 -2.97681 -4.37681
179 1 9.89421 -4.5281 -4.56726 -4.46862
180 1 9.98851 -2.13423 -1.16881 -4.43619
181 1 12.2425 -4.54703 -1.39522 -4.45308
182 1 12.2928 -2.17625 -4.70017 -4.42606
183 1 11.0239 -3.33609 -2.93101 -4.35573
184 1 11.3548 -1.21744 0.480296 -4.30178
185 1 14.3333 -4.25321 -0.413539 -4.41036
186 1 13.1802 -1.01079 -2.80779 -4.37703
187 1 14.7645 -4.43136 -4.30194 -4.63812
188 1 14.6893 -2.0856 -1.27758 -4.54625
189 1 17.5603 -4.05247 -2.31581 -4.65075
190 1 17.2026 -1.56951 -4.79984 -4.63312
191 1 15.9026 -2.81515 -3.16503 -4.64233
192 1 16.1521 -1.23951 0.295928 -4.27022
193 1 18.691 -2.24336 -1.3436 -3.84078
194 1 18.7859 -0.240424 -3.49888 -3.67554
195 1 -19.2003 -1.1038 -3.78184 -4.34675
196 1 -18.0616 0.474742 -0.412922 -4.32339
197 1 -17.5094 2.56292 -4.59251 -4.35762
198 1 -17.8116 0.572294 -2.938 -4.36057
199 1 -17.8092 4.26302 1.04536 -4.24804
200 1 -16.003 1.32423 0.140435 -4.45109
201 1 -16.0869 3.80448 -3.14734 -4.31757
202 1 -14.6202 0.116727 58.8728 -4.55089
203 1 -15.0536 1.94728 -2.02943 -4.4418
204 1 -12.421 -0.019357 -1.76238 -4.47803
205 1 -12.2631 2.62942 -5.12725 -4.52698
206 1 -13.4057 1.20392 -3.57548 -4.43522
207 1 -13.7308 3.49885 -0.788892 -4.40682
208 1 -10.9904 1.22505 -0.185415 -4.50066
209 1 -10.8719 3.77868 -3.58706 -4.48016
210 1 -10.0419 -0.0576777 -4.98998 -4.44121
211 1 -9.88841 2.43347 -1.89829 -4.43636
212 1 -7.3665 0.101359 -1.95311 -4.46
213 1 -7.45224 2.47223 58.8473 -4.42462
214 1 -8.69934 1.20939 -3.57003 -4.47482
215 1 -8.70768 3.74921 -0.196272 -4.444
216 1 -6.12274 1.23649 -0.214265 -4.41555
217 1 -6.02724 3.62891 -3.56859 -4.44559
218 1 -4.88501 0.213059 -4.92034 -4.44386
219 1 -4.95755 2.48969 -1.89969 -4.44267
220 1 -2.23991 0.0570989 -1.53054 -4.4052
221 1 -2.65396 2.69832 -4.8544 -4.45017
222 1 -3.48243 1.1526 -3.28074 -4.46704
223 1 -3.66224 3.63249 -0.131093 -4.49172
224 1 -1.09972 1.53105 -0.0531522 -4.50019
225 1 -1.31849 3.90359 -3.29922 -4.45121
226 1 0.148609 0.293483 -4.76607 -4.43584
227 1 0.0029 2.99797 -1.51226 -4.48017
228 1 2.48482 0.415703 -1.49998 -4.51361
229 1 2.65133 2.95463 -4.55837 -4.48929
230 1 1.25039 1.68583 -3.12578 -4.53116
231 1 1.52438 4.18479 -0.0219221 -4.44966
232 1 3.76763 1.66449 0.0764077 -4.45637
233 1 4.0144 4.36646 -3.1146 -4.5601
234 1 5.11992 0.426563 -4.55453 -4.52417
235 1 4.95587 2.94244 -1.48854 -4.47605
236 1 7.54343 0.313907 -1.39913 -4.47371
237 1 7.71918 3.14246 -4.45651 -4.45923
238 1 6.37302 1.70532 -2.96989 -4.53942
239 1 6.08483 4.03647 0.322601 -4.39123
240 1 8.46684 1.49959 0.42725 -4.42966
241 1 8.70077 4.51448 -2.71951 -4.52074
242 1 10.0568 0.50599 -4.49469 -4.46485
243 1 9.57223 2.90354 -1.19228 -4.47316
244 1 12.217 0.400504 -1.04 -4.41974
245 1 12.4639 3.43222 -4.10463 -4.89106
246 1 11.0535 1.80446 -2.74644 -4.24701
247 1 10.6915 3.85369 0.6653 -4.43767
248 1 13.5706 1.41771 0.657989 -4.49392
249 1 13.7036 4.32708 -2.20759 -4.43008
250 1 14.531 0.228911 -4.30866 -4.43137
251 1 14.7176 2.55018 -0.952499 -4.38742
252 1 17.5963 -0.139396 -1.32656 -4.95028
253 1 16.6853 2.69004 -3.92332 -4.35705
254 1 15.7778 1.09826 -2.48896 -4.3338
255 1 16.3533 4.01556 0.0565854 -4.94273
256 1 18.642 0.868644 0.640205 -4.18461
257 1 18.3136 4.35654 -3.99574 -4.33958
258 1 18.7759 1.96692 -4.62178 -4.32679
259 1 -17.4389 4.75677 -1.34729 -4.14959
260 1 -16.9897 8.12347 57.4285 -4.28957
261 1 -17.6039 6.73252 -4.77319 -4.07134
262 1 -16.5642 6.91487 -0.677921 -4.29447
263 1 -16.6001 8.86353 -4.17702 -4.1172
264 1 -15.6381 5.35226 59.0008 -5.209
265 1 -15.1651 7.7708 -2.49332 -4.49296
266 1 -12.5399 4.95259 -2.18959 -4.48815
267 1 -12.2841 7.64866 58.9232 -4.59781
268 1 -13.6783 6.36693 -3.77305 -4.28447
269 1 -13.8315 9.0407 -0.962963 -4.49462
270 1 -11.4314 6.09308 -0.565365 -4.51389
271 1 -10.7901 8.72183 -3.7265 -4.49702
272 1 -9.64284 4.97619 59.0332 -4.46254
273 1 -9.96672 7.35545 -1.96893 -4.56398
274 1 -7.28782 4.80305 -1.9943 -4.53132
275 1 -7.29558 7.34227 58.5976 -4.37429
276 1 -8.44535 6.26176 -3.37877 -4.38958
277 1 -8.50422 8.4571 -0.521765 -4.50529
278 1 -5.94124 6.02724 -0.549333 -4.47331
279 1 -6.20001 8.76312 -3.87413 -4.43745
280 1 -4.77438 5.11872 59.0541 -4.4273
281 1 -5.11628 7.59492 -2.11387 -4.54272
282 1 -2.47225 5.12038 -1.58794 -4.49622
283 1 -2.28644 7.64558 59.116 -4.47046
284 1 -3.56971 6.4294 -3.35085 -4.49525
285 1 -3.76464 8.8932 -0.662967 -4.53506
286 1 -1.31799 6.51828 -0.0278771 -4.53659
287 1 -1.00935 9.07054 -3.57332 -4.48909
288 1 0.163479 5.03706 -4.84742 -4.48294
289 1 -0.197597 7.87195 -1.68323 -4.40985
290 1 2.6014 5.6502 -1.65565 -4.491
291 1 2.78486 8.04996 -4.7093 -4.30279
292 1 1.30037 6.68752 -3.33811 -4.43735
293 1 1.07038 9.10821 -0.0426303 -4.43793
294 1 3.75516 6.57654 0.203735 -4.42408
295 1 3.92919 9.43991 -2.82783 -4.51678
296 1 5.44275 5.81282 -4.44209 -4.42715
297 1 4.91379 8.06367 -1.21845 -4.6506
298 1 7.30859 5.49393 -1.04566 -4.57907
299 1 8.74453 8.67199 58.2214 -4.06501
300 1 6.44051 7.01617 -2.62102 -4.61948
301 1 6.22925 9.40077 0.351215 -4.48653
302 1 8.62543 6.64106 0.560286 -4.46813
303 1 8.15088 8.59294 -3.06966 -4.1564
304 1 9.96444 5.85414 -4.22086 -4.03425
305 1 9.5265 7.87172 -1.28471 -4.4759
306 1 12.114 5.12903 -0.738015 -4.62014
307 1 12.6749 7.94038 57.7486 -4.62363
308 1 11.3047 6.71669 -2.36474 -4.50739
309 1 11.1068 9.00227 1.59249 -4.45858
310 1 13.5749 6.34227 0.683619 -4.65703
311 1 12.395 10.1169 58.4599 -4.17548
312 1 13.9534 4.97561 58.8394 -4.3395
313 1 14.5388 7.77089 -0.814998 -3.9543
314 1 17.2496 5.07089 -1.90567 -3.72014
315 1 15.5449 6.72798 58.9505 -4.34468
316 1 15.2823 6.21821 -2.57991 -4.48036
317 1 15.9636 8.05213 1.76876 -3.90206
318 1 18.2952 5.32615 0.842184 -3.76142
319 1 -15.1157 12.9794 0.23038 -4.11391
320 1 -14.8322 10.1917 59.063 -4.62877
321 1 -14.8505 13.2891 -2.13672 -4.20938
322 1 -12.2846 10.0179 -2.37105 -4.60175
323 1 -12.3923 12.6874 58.7751 -5.00557
324 1 -13.6602 11.6268 -3.53941 -4.34757
325 1 -13.0085 13.6715 -0.59889 -5.01149
326 1 -10.5345 10.9102 -1.0485 -4.42728
327 1 -11.498 14.1785 -3.73774 -4.3055
328 1 -9.58841 10.1089 58.7372 -4.58998
329 1 -10.0931 12.5013 -2.73498 -4.4702
330 1 -7.67476 9.81484 -2.4238 -4.47004
331 1 -7.3253 12.8238 58.2526 -4.46467
332 1 -8.32983 11.5266 -3.99006 -4.48797
333 1 -8.97406 13.8515 -1.24547 -4.45841
334 1 -6.33713 11.3231 -1.10051 -4.55342
335 1 -6.09464 13.9526 -4.28822 -4.54809
336 1 -4.8021 10.1449 58.5357 -4.48844
337 1 -4.96819 12.5515 -2.68368 -4.49032
338 1 -2.49938 10.2813 -2.18724 -4.4352
339 1 -2.21753 12.8316 58.5905 -4.5919
340 1 -3.42299 11.3497 -4.07576 -4.55967
341 1 -3.53196 13.5669 -1.1321 -4.43479
342 1 -1.38112 11.3676 -0.454968 -4.43568
343 1 -0.985865 14.0505 -3.7796 -4.51523
344 1 0.297808 10.2786 58.8032 -4.42075
345 1 -0.0961167 12.608 -2.09465 -4.45229
346 1 2.37187 10.5148 -1.48692 -4.54982
347 1 2.84191 12.6262 58.9571 -4.35209
348 1 1.45918 11.3929 -3.47725 -4.3686
349 1 1.02768 13.7444 -0.220945 -4.44935
350 1 3.70273 11.8263 0.0134051 -4.43512
351 1 3.93175 13.8733 -3.3331 -3.95549
352 1 6.05189 11.0867 58.3535 -4.10721
353 1 5.15538 12.9516 -1.59989 -4.17517
354 1 7.31266 10.4112 -1.6029 -4.50935
355 1 7.27297 12.915 57.3011 -4.94696
356 1 5.53955 11.0452 -2.96565 -4.30909
357 1 6.23151 14.2187 0.703441 -4.18822
358 1 8.6508 11.6902 1.37433 -4.64098
359 1 8.73092 14.551 58.5544 -4.35241
360 1 10.3654 10.1812 57.085 -4.92833
361 1 8.41968 12.4071 -0.864339 -4.38964
362 1 11.044 9.61136 -0.736544 -4.94956
363 1 12.0875 12.002 56.8613 -4.18703
364 1 10.4213 11.7298 -1.79012 -4.37316
365 1 10.3344 13.2624 1.87164 -4.5798
366 1 12.9447 10.3921 2.00141 -4.56207
367 1 12.273 12.6348 -0.833381 -3.64394
368 1 14.5539 10.1938 57.4291 -3.93074
369 1 13.2154 10.558 -0.29341 -4.33858
370 1 12.7072 8.7369 -2.00455 -4.21975
371 1 -13.2721 15.1229 -2.43736 -3.86015
372 1 -12.3341 15.7205 0.262564 -3.83607
373 1 -9.35962 15.8166 58.0715 -4.35165
374 1 -7.81302 14.9081 -3.04919 -4.58681
375 1 -7.94752 17.7089 57.9389 -4.34581
376 1 -8.95617 16.7884 -3.86807 -4.37803
377 1 -6.27758 15.8794 -1.57928 -4.71438
378 1 -6.9458 17.8563 -4.06425 -3.63725
379 1 -4.98091 15.6367 58.5234 -4.50973
380 1 -5.11515 17.5079 -2.67869 -4.6041
381 1 -2.43548 15.2099 -2.31357 -4.47207
382 1 -2.09545 18.1911 58.606 -4.28189
383 1 -3.35727 16.6345 -4.06532 -4.43936
384 1 -4.95298 18.552 -0.514513 -4.05716
385 1 -1.61663 16.5329 -0.500993 -4.51525
386 1 -0.413522 19.1413 -3.94769 -4.36892
387 1 0.521876 15.1357 58.8606 -4.30015
388 1 -0.359899 17.8379 -2.00629 -4.44654
389 1 2.27023 14.8103 -1.88925 -4.39668
390 1 3.0996 17.952 -3.34298 -4.29693
391 1 1.20668 16.4388 -3.2983 -4.99185
392 1 0.784068 18.6594 -0.181969 -4.45656
393 1 3.41169 16.0449 -0.176005 -4.4337
394 1 2.59525 19.3218 -1.44983 -4.34071
395 1 5.53504 14.3467 58.3209 -3.60542
396 1 4.51847 18.0415 -0.523719 -4.42493
397 1 8.69791 17.6765 59.1917 -4.31892
398 1 9.44424 18.2315 57.0124 -4.34443
399 1 7.02815 16.0401 59.1496 -4.56558
400 1 3.85688 18.8849 1.60157 -4.22609
401 1 7.12075 16.0355 1.77943 -4.46979
402 1 9.46611 15.1487 56.2776 -4.51984
403 1 10.3241 13.739 -0.513323 -4.44242
404 1 10.316 16.3336 58.0721 -4.52242
405 1 1.88535 20.0697 -3.59955 -4.23812
406 1 -11.7319 -15.311 1.2869 -4.30451
407 1 -7.69415 -17.2413 1.06697 -3.64991
408 1 -8.63273 -16.0454 6.0128 -3.61153
409 1 -5.90554 -18.5065 6.60844 -4.05534
410 1 -6.26478 -16.4935 2.80777 -4.53899
411 1 -4.93936 -17.6566 4.47032 -4.47274
412 1 -2.52356 -17.8688 1.00054 -4.12538
413 1 -3.1878 -18.4841 3.21032 -3.98762
414 1 -3.54923 -16.1651 5.54685 -4.46631
415 1 -1.86261 -18.8891 5.18641 -3.76617
416 1 -1.0759 -16.7234 2.52016 -5.14881
417 1 1.24979 -20.0129 -1.43861 -4.15262
418 1 0.0265256 -17.9982 4.20502 -4.21065
419 1 2.3012 -17.4748 0.847996 -4.52656
420 1 0.514601 -18.6012 1.8523 -4.188
421 1 0.723166 -16.1497 5.61069 -4.40824
422 1 4.3061 -17.9879 6.66248 -4.34239
423 1 3.62888 -16.3835 2.56493 -4.58984
424 1 5.11173 -17.5148 3.94235 -4.23803
425 1 7.93936 -17.2956 0.743237 -4.44544
426 1 7.3288 -17.5139 3.17217 -3.62868
427 1 5.6722 -15.5702 5.21734 -4.76543
428 1 8.28331 -15.5871 2.25111 -4.54832
429 1 12.2691 -14.6694 7.38118 -4.43089
430 1 -16.8768 -9.24534 3.54935 -4.29466
431 1 -15.6599 -11.4141 3.47497 -4.06492
432 1 -12.7384 -13.8974 2.78967 -4.19362
433 1 -12.6539 -11.9138 1.27764 -4.66426
434 1 -14.7189 -13.1286 1.77352 -4.06561
435 1 -14.0305 -11.1338 5.19323 -4.95761
436 1 -11.4784 -13.8701 4.9263 -4.46357
437 1 -11.1232 -10.9278 2.77109 -4.40489
438 1 -9.5255 -14.6698 0.570345 -4.16836
439 1 -9.85562 -12.2782 4.19088 -4.57479
440 1 -7.65838 -15.1064 4.13723 -4.57119
441 1 -7.31321 -12.5452 1.47155 -4.58975
442 1 -8.7993 -13.7806 2.68131 -4.46465
443 1 -8.7859 -11.2438 6.05651 -4.49756
444 1 -6.41298 -13.7561 5.66134 -4.54748
445 1 -5.99802 -11.291 3.028 -4.52183
446 1 -4.90389 -15.2514 1.18468 -4.48182
447 1 -4.71154 -12.6405 4.4542 -4.51219
448 1 -2.08662 -15.0168 4.10719 -4.26747
449 1 -2.33037 -12.6283 1.46226 -4.42886
450 1 -3.64424 -13.8236 2.75606 -4.47505
451 1 -4.0535 -10.997 6.13083 -4.40956
452 1 -1.55509 -13.4992 5.94468 -4.50114
453 1 -1.28227 -11.1103 3.02513 -4.5102
454 1 -0.0466545 -14.953 1.27231 -4.29926
455 1 0.0317595 -12.3571 4.53602 -4.5274
456 1 2.31266 -15.1435 4.13363 -4.56151
457 1 2.55005 -12.2642 1.46949 -4.5342
458 1 1.15498 -13.6753 2.86922 -4.51956
459 1 1.25855 -11.4479 6.40614 -4.36332
460 1 3.9395 -14.1852 5.6931 -4.39764
461 1 3.73674 -11.0818 3.0797 -4.44354
462 1 4.98803 -14.8281 1.49997 -4.51544
463 1 4.99736 -12.3608 4.61693 -4.53177
464 1 7.64995 -14.6919 4.34693 -4.41759
465 1 7.69251 -12.2287 1.46127 -4.4442
466 1 6.22205 -13.3397 2.88512 -4.53982
467 1 6.14302 -11.2118 6.29303 -4.50392
468 1 8.77905 -13.5615 6.1506 -4.34767
469 1 8.78551 -10.9769 3.0931 -4.48942
470 1 10.6852 -15.3554 2.39208 -3.60256
471 1 10.1174 -12.1833 4.81098 -4.53891
472 1 12.8226 -14.191 4.93914 -3.66439
473 1 12.8891 -12.1259 1.426 -4.29183
474 1 11.5161 -13.2622 3.16658 -4.66639
475 1 11.4579 -10.87 6.18941 -4.48169
476 1 12.7536 -12.4265 7.48903 -4.6743
477 1 14.184 -10.8897 3.05313 -4.47865
478 1 14.6238 -12.6542 4.83359 -3.5523
479 1 15.0561 -12.5843 7.15206 -4.54278
480 1 -17.4091 -7.48589 2.0384 -4.56467
481 1 -18.4139 -4.69224 7.94915 -4.24926
482 1 -16.2412 -8.49846 5.75394 -4.44095
483 1 -15.8321 -6.24983 3.31421 -4.67317
484 1 -15.0552 -9.72469 2.02714 -4.59777
485 1 -14.4309 -7.29822 4.85324 -4.58168
486 1 -12.1745 -9.79451 4.44455 -4.39205
487 1 -12.1623 -7.31507 1.45702 -4.36794
488 1 -13.4619 -8.36254 3.06544 -4.61842
489 1 -13.3291 -6.09127 6.61495 -4.517
490 1 -11.1033 -8.727 6.35438 -4.37276
491 1 -11.0306 -6.18017 3.30793 -4.40823
492 1 -9.72983 -9.72768 1.36861 -4.61005
493 1 -9.68355 -7.64492 4.78518 -4.46475
494 1 -7.14952 -10.1148 4.76707 -4.49957
495 1 -7.1465 -7.55814 1.56107 -4.4643
496 1 -8.40591 -8.87966 3.14852 -4.44654
497 1 -8.41856 -6.18823 6.38202 -4.51975
498 1 -6.13066 -8.642 6.33388 -4.46445
499 1 -6.02651 -6.21914 3.2392 -4.5669
500 1 -4.77125 -10.0877 1.29874 -4.46851
501 1 -4.82696 -7.49497 4.75077 -4.46581
502 1 -2.6198 -9.98555 4.58007 -4.50523
503 1 -2.36704 -7.34974 1.68027 -4.48428
504 1 -3.81616 -8.73009 3.00268 -4.52149
505 1 -3.60988 -6.16365 6.36491 -4.48342
506 1 -1.37206 -8.7864 6.28546 -4.48224
507 1 -1.06047 -6.04118 3.30028 -4.48306
508 1 -0.0171105 -9.7507 1.44266 -4.48424
509 1 0.0452532 -7.44506 4.81167 -4.51784
510 1 2.42093 -10.196 4.8625 -4.41794
511 1 2.45434 -7.52675 1.59137 -4.48054
512 1 1.24615 -8.79792 3.24245 -4.43341
513 1 1.32481 -6.04895 6.45201 -4.41401
514 1 3.60848 -8.65521 6.40638 -4.48688
515 1 3.8074 -6.20935 3.13135 -4.52349
516 1 5.16359 -9.76843 1.50091 -4.42732
517 1 4.96121 -7.48699 4.7801 -4.49301
518 1 7.58344 -9.88208 4.84732 -4.51796
519 1 7.53704 -7.13299 1.79843 -4.52622
520 1 6.32117 -8.66469 3.19293 -4.51197
521 1 6.08952 -5.88846 6.31665 -4.53189
522 1 8.78367 -8.65906 6.50614 -4.555
523 1 8.80991 -5.95574 3.43611 -4.52702
524 1 10.1211 -9.45195 1.98301 -4.53616
525 1 10.0323 -7.22491 5.09858 -4.53816
526 1 12.8159 -9.68717 4.62727 -4.54237
527 1 12.6186 -6.79855 1.82356 -4.42313
528 1 11.4156 -8.15685 3.36832 -4.52216
529 1 11.2702 -6.03157 6.74461 -4.56761
530 1 13.9156 -8.78541 6.46913 -4.46302
531 1 13.6339 -5.74434 3.63166 -4.34564
532 1 15.0451 -9.43713 1.34402 -4.09602
533 1 15.0333 -7.26201 4.97913 -4.61495
534 1 16.3317 -5.85211 1.71558 -4.43265
535 1 15.9844 -7.85225 2.81607 -3.63386
536 1 16.4224 -6.03207 6.50774 -4.08422
537 1 17.8377 -4.29274 2.63048 -4.43345
538 1 -17.5063 -4.98426 4.52059 -4.51808
539 1 -16.5758 -2.7232 1.33667 -4.24109
540 1 -18.1355 -3.86967 2.47896 -4.43978
541 1 -18.7822 -1.84611 3.56301 -3.86125
542 1 -16.0303 -3.69998 5.90734 -4.57102
543 1 -16.5903 -1.00599 3.06147 -5.34697
544 1 -14.6343 -5.2745 1.60033 -4.33693
545 1 -14.9896 -2.25603 4.39064 -4.27263
546 1 -12.3897 -4.72837 4.75792 -4.41676
547 1 -12.524 -2.5425 1.67401 -4.52799
548 1 -13.7138 -3.78025 3.22103 -4.42698
549 1 -13.7327 -1.18457 6.14614 -4.34882
550 1 -11.1587 -3.46231 6.28719 -4.51618
551 1 -11.2283 -1.19067 3.17834 -4.52543
552 1 -9.84341 -5.03281 1.69942 -4.5413
553 1 -9.79746 -2.34064 4.63141 -4.48396
554 1 -7.34309 -4.95352 4.69048 -4.51534
555 1 -7.17509 -2.34354 1.55887 -4.52604
556 1 -8.51646 -3.6353 3.10774 -4.54654
557 1 -8.6645 -1.275 6.43708 -4.42075
558 1 -6.04526 -3.65483 6.2829 -4.48101
559 1 -6.25304 -0.96811 3.22061 -4.45264
560 1 -4.80508 -4.79272 1.80507 -4.38534
561 1 -4.80668 -2.14874 4.90944 -4.49127
562 1 -2.38631 -4.81927 4.91769 -4.5161
563 1 -2.41143 -2.3936 1.73342 -4.46655
564 1 -3.69346 -3.51481 3.36386 -4.49681
565 1 -3.6064 -1.06568 6.64289 -4.47204
566 1 -1.20388 -3.63485 6.61758 -4.53702
567 1 -1.27984 -0.920266 3.39072 -4.41428
568 1 0.12675 -4.87069 1.64292 -4.47497
569 1 -0.0851487 -2.17817 5.07881 -4.45236
570 1 2.4514 -4.83053 4.70169 -4.48514
571 1 2.43921 -2.2416 1.75495 -4.47249
572 1 1.13465 -3.52693 3.34371 -4.47273
573 1 1.26879 -1.04743 6.72434 -4.47778
574 1 3.57715 -3.51769 6.31916 -4.42704
575 1 3.5821 -0.972148 3.30859 -4.50686
576 1 4.94585 -4.68917 1.62535 -4.52
577 1 4.95608 -2.15995 4.7754 -4.50256
578 1 7.54342 -4.64898 4.92963 -4.50847
579 1 7.61728 -2.14504 1.7731 -4.48685
580 1 6.31287 -3.48847 3.25662 -4.52979
581 1 6.07536 -0.986795 6.5881 -4.51716
582 1 8.60902 -3.6209 6.6854 -4.45971
583 1 8.62447 -0.872447 3.5265 -4.42209
584 1 10.0981 -4.59509 1.95405 -4.41925
585 1 9.87993 -2.14946 5.1955 -4.52419
586 1 12.4593 -4.63952 5.32727 -4.55317
587 1 12.7449 -2.55836 2.30641 -4.22829
588 1 11.1795 -3.4863 3.78455 -4.53945
589 1 11.1841 -1.11007 6.79916 -4.51289
590 1 13.7697 -3.41312 6.86169 -4.54846
591 1 13.535 -1.04079 3.9001 -4.59821
592 1 14.5748 -4.18179 2.08734 -4.99082
593 1 15.0908 -2.06868 5.414 -4.50815
594 1 17.2849 -4.38887 4.93239 -3.53548
595 1 18.0453 -2.50601 0.877866 -4.37589
596 1 16.1606 -2.98751 3.4335 -4.40144
597 1 16.3563 -0.288947 6.45745 -4.33404
598 1 18.4839 -0.940615 7.38484 -4.46369
599 1 18.7939 -0.646004 2.40903 -4.2833
600 1 -18.6408 -0.0620761 2.03505 -4.0234
601 1 -16.9654 0.411028 5.02742 -4.4704
602 1 -16.609 2.53206 2.22946 -4.60511
603 1 -18.2748 1.73262 3.64345 -4.55194
604 1 -17.6987 3.48631 5.2341 -4.46504
605 1 -15.5554 1.50579 6.54289 -4.57155
606 1 -15.9427 4.13833 3.74939 -4.5501
607 1 -14.8346 -0.109904 1.64127 -4.34899
608 1 -14.5402 2.60098 4.69572 -4.47156
609 1 -12.4723 0.157003 4.62149 -4.45791
610 1 -12.4985 2.66619 1.13618 -4.4083
611 1 -13.4232 1.4217 2.91801 -4.40471
612 1 -13.2012 3.88692 6.0964 -4.56973
613 1 -11.0605 1.16722 6.33856 -4.4233
614 1 -11.4013 3.95465 2.75718 -4.41008
615 1 -9.92556 -0.19204 1.46389 -4.50248
616 1 -10.2144 2.59029 4.4903 -4.41349
617 1 -7.65928 0.181414 4.70251 -4.46914
618 1 -7.43933 2.36878 1.39159 -4.49134
619 1 -8.85355 1.31884 2.92707 -4.53524
620 1 -8.68986 3.7294 5.85042 -4.5212
621 1 -6.13697 1.29739 6.24628 -4.47374
622 1 -6.18556 3.63768 2.95017 -4.51323
623 1 -4.9778 0.0871462 1.53005 -4.44114
624 1 -4.76688 2.58759 4.64933 -4.46612
625 1 -2.47784 0.276332 4.99273 -4.42691
626 1 -2.37001 2.65288 1.66479 -4.49093
627 1 -3.56285 1.29897 3.14391 -4.45389
628 1 -3.83456 4.01297 6.3007 -4.48394
629 1 -1.28369 1.50696 6.47682 -4.47847
630 1 -1.16499 4.07158 3.19455 -4.44992
631 1 -0.0352048 0.309777 1.71077 -4.50051
632 1 0.0867885 2.61454 4.87523 -4.39519
633 1 2.25359 0.234151 4.97505 -4.39916
634 1 2.71671 2.98303 1.73725 -4.43229
635 1 1.39413 1.56369 3.10229 -4.44065
636 1 0.935314 4.20389 6.33798 -4.52981
637 1 3.44666 1.59609 6.47942 -4.53908
638 1 3.70633 4.26795 3.43114 -4.53135
639 1 4.92546 0.272046 1.76158 -4.45091
640 1 4.92409 2.91283 5.00182 -4.53679
641 1 7.43111 0.284689 5.207 -4.44727
642 1 7.24861 2.98527 1.99118 -4.37573
643 1 6.15268 1.53104 3.47356 -4.49373
644 1 6.05306 4.17613 6.60002 -4.54401
645 1 8.5735 1.51729 6.96458 -4.56035
646 1 8.40155 4.05359 3.87881 -4.43326
647 1 10.0685 0.250394 1.87086 -4.45396
648 1 9.81338 2.90243 5.36818 -4.47525
649 1 12.2483 0.334511 5.29445 -4.52381
650 1 12.3337 2.79856 2.16821 -4.52789
651 1 10.9439 1.62762 3.73046 -4.47156
652 1 11.2097 3.91757 7.0128 -4.4552
653 1 13.5906 1.45566 6.88892 -4.49521
654 1 13.6575 4.09139 3.72112 -4.40206
655 1 14.7768 -0.0172424 2.09273 -4.44459
656 1 14.8836 2.69344 5.22394 -4.44163
657 1 17.5016 -0.0126526 4.32278 -4.53169
658 1 17.049 2.25876 1.41391 -4.50519
659 1 15.975 1.55292 3.38966 -4.58438
660 1 16.3673 3.75444 6.7333 -4.30189
661 1 18.8196 1.65139 5.03111 -4.39777
662 1 18.595 3.56204 2.41947 -4.59077
663 1 19.8293 1.52912 2.80707 -4.18117
664 1 -18.1262 5.73086 5.28947 -4.46883
665 1 -16.5805 7.42983 1.72323 -4.5425
666 1 -17.5231 5.74225 2.94573 -4.26819
667 1 -15.9091 6.57699 5.83197 -4.57726
668 1 -15.4196 9.42867 2.34997 -3.64768
669 1 -15.4499 4.90409 0.125166 -4.79187
670 1 -14.2348 6.94926 4.11064 -4.38442
671 1 -12.5791 5.32224 4.34063 -4.54401
672 1 -12.7724 7.74906 0.642473 -4.51806
673 1 -14.4098 6.50154 1.75306 -4.36947
674 1 -13.1445 8.64133 5.39752 -4.33195
675 1 -11.0828 6.2397 5.81353 -4.52691
676 1 -11.2798 8.35988 2.47879 -4.30717
677 1 -10.0923 5.22044 1.21922 -4.50076
678 1 -9.9045 7.52608 4.21001 -4.52126
679 1 -7.40174 5.08594 4.42819 -4.49542
680 1 -7.19754 7.27931 0.972619 -4.50313
681 1 -8.52587 6.31007 2.64955 -4.47162
682 1 -8.9985 9.17948 5.50792 -4.3468
683 1 -6.43623 6.55198 5.95735 -4.50493
684 1 -5.92084 8.70306 2.45257 -4.42026
685 1 -5.01146 4.9485 1.31804 -4.48474
686 1 -5.00297 7.68093 4.42363 -4.40582
687 1 -2.58663 5.22838 4.58851 -4.44453
688 1 -2.80599 7.87734 1.2954 -4.44532
689 1 -3.79389 6.31482 2.87767 -4.4624
690 1 -4.14412 9.33161 6.04353 -4.30355
691 1 -1.63188 6.57578 6.2595 -4.54737
692 1 -1.53573 8.93927 3.04951 -4.46726
693 1 0.0274292 5.26172 1.53076 -4.46942
694 1 -0.328147 7.924 4.8411 -4.50125
695 1 2.38735 5.50555 4.96852 -4.54635
696 1 2.23169 7.72412 1.73728 -4.41542
697 1 0.995131 6.62165 3.32794 -4.47363
698 1 0.918444 9.08852 6.44147 -4.51155
699 1 3.76019 6.65172 6.47993 -4.52325
700 1 3.49116 8.91673 3.41889 -4.46694
701 1 5.08649 5.37314 1.91803 -4.38516
702 1 5.12932 8.12893 5.10127 -4.4031
703 1 7.51705 5.63438 5.39384 -4.45022
704 1 7.32434 7.9765 2.00642 -4.40516
705 1 6.06471 6.62656 3.62042 -4.39525
706 1 6.4257 9.28332 6.93653 -4.32768
707 1 8.64136 6.5018 7.32421 -4.41235
708 1 8.36117 8.86191 4.09244 -4.5906
709 1 9.64995 5.17472 2.19972 -4.36681
710 1 9.87477 7.89887 5.66054 -4.29443
711 1 12.5172 5.31858 5.44407 -4.43616
712 1 12.3131 7.1485 2.61252 -4.44226
713 1 10.7934 6.20064 4.10979 -4.48494
714 1 11.8072 9.30174 8.43661 -4.41144
715 1 13.5643 6.41055 7.27722 -4.35862
716 1 13.4872 8.21297 4.44609 -4.21812
717 1 15.068 4.97054 1.84654 -4.33776
718 1 14.9971 8.04487 6.31122 -4.77722
719 1 17.7881 3.79161 4.71164 -4.29182
720 1 18.0303 7.00917 2.45491 -4.4933
721 1 15.8991 6.37039 3.49512 -4.48867
722 1 16.7573 9.20053 7.56972 -4.04465
723 1 17.85 6.15028 4.59062 -4.15925
724 1 -14.7144 10.9577 3.97942 -4.33661
725 1 -14.9161 10.5695 0.341312 -4.62169
726 1 -14.1177 12.6403 2.56368 -4.40054
727 1 -12.4531 10.2134 3.5408 -4.90365
728 1 -11.3917 12.421 0.530553 -4.11713
729 1 -12.9198 11.021 1.45342 -4.50647
730 1 -12.4486 13.7183 3.81986 -4.15351
731 1 -10.7072 10.7962 5.10405 -4.34276
732 1 -10.5444 13.9657 2.36344 -5.35474
733 1 -10.0098 9.57977 0.899778 -4.52579
734 1 -9.72008 11.9214 3.37172 -4.41093
735 1 -7.3038 9.83944 3.97204 -4.48682
736 1 -7.76471 12.4419 0.26395 -4.43014
737 1 -8.28212 10.719 1.99507 -4.55135
738 1 -8.10496 12.9481 4.78598 -4.62991
739 1 -6.10299 11.738 4.96613 -4.4228
740 1 -6.47157 13.7876 1.61195 -4.56946