ITEM: TIMESTEP
382000
ITEM: NUMBER OF ATOMS
4050
ITEM: BOX BOUNDS ss ss pp
-2.0362952986379458e+01 2.0155717910372289e+01
-1.9962262531777512e+01 2.0180205505491852e+01
-5.1866050000000010e+00 5.9496605000000002e+01
ITEM: ATOMS id type x y z c_peratom
1 1 -11.0875 -14.3008 -2.44563 -4.27781
2 1 -7.73057 -17.0837 -5.14631 -4.17804
3 1 -8.48349 -16.061 -1.02812 -4.57625
4 1 -6.92555 -17.7128 -1.51858 -3.7088
5 1 -5.86014 -16.0294 -3.93069 -4.94039
6 1 -4.75225 -17.5309 -2.31763 -4.32213
7 1 -2.47577 -17.4871 59.2218 -4.49877
8 1 -4.61093 -18.2327 -4.55015 -4.02245
9 1 -3.67508 -16.1772 -0.655149 -4.37245
10 1 -0.615501 -18.6269 -0.398247 -4.34261
11 1 -1.61843 -16.0094 -3.65323 -4.44412
12 1 0.0790254 -18.6701 -3.57554 -4.12496
13 1 -0.23443 -16.9781 -2.05328 -4.54916
14 1 2.92492 -17.3133 -4.6674 -4.58368
15 1 2.28172 -19.3394 -3.56634 -4.39024
16 1 1.26712 -15.9502 -0.560801 -4.59341
17 1 3.12472 -19.0001 -1.42206 -4.20826
18 1 3.86873 -15.8287 -3.1735 -4.57576
19 1 5.04231 -17.6004 -2.32978 -4.38699
20 1 6.53935 -17.8323 -4.27528 -4.32901
21 1 9.08105 -16.2585 -1.26087 -4.28168
22 1 5.95601 -16.1213 -0.813384 -4.51481
23 1 8.4821 -16.4391 -3.57783 -4.12293
24 1 10.5957 -14.5616 -0.414961 -4.56593
25 1 -14.3707 -12.1363 -3.43614 -3.9883
26 1 -14.4966 -13.347 -0.770438 -3.84066
27 1 -12.837 -15.0107 -0.982758 -4.38513
28 1 -12.3364 -13.5357 58.0238 -4.36884
29 1 -12.4237 -13.1743 -4.10614 -4.48998
30 1 -14.0789 -11.0168 -1.4115 -4.42318
31 1 -11.263 -13.4852 -0.190672 -4.92607
32 1 -11.0284 -11.3096 -3.86578 -4.59542
33 1 -9.02579 -15.2729 58.7664 -4.13343
34 1 -9.51185 -12.534 -2.58918 -4.48528
35 1 -6.99327 -14.6065 -2.29078 -4.33432
36 1 -6.91125 -12.1966 -5.29538 -4.58365
37 1 -8.26417 -13.7485 -4.18188 -4.47504
38 1 -8.68862 -11.2204 -0.69365 -4.34008
39 1 -5.99144 -13.3984 -0.580771 -4.4397
40 1 -6.08937 -10.7705 -3.60819 -4.43014
41 1 -4.36507 -14.8002 59.3974 -4.31813
42 1 -4.88934 -11.9851 -1.96887 -4.43253
43 1 -2.55979 -14.5291 -1.97859 -4.50107
44 1 -2.19079 -12.3835 59.5681 -4.39351
45 1 -3.732 -13.2125 -3.60774 -4.44849
46 1 -3.5755 -11.0805 -0.259654 -4.47921
47 1 -1.31115 -13.2559 -0.345844 -4.47418
48 1 -1.36987 -10.8244 -3.5098 -4.4285
49 1 -0.0150816 -14.8399 -5.10393 -4.59429
50 1 0.104652 -12.0434 -1.80671 -4.38427
51 1 2.26793 -14.5604 -2.20617 -4.50677
52 1 2.60055 -12.2347 -5.07913 -4.50277
53 1 0.98518 -13.2044 -3.75865 -4.46599
54 1 1.22185 -10.7113 -0.112378 -4.50627
55 1 3.73471 -13.4298 -0.670274 -4.54675
56 1 3.65539 -10.9851 -3.33322 -4.52388
57 1 4.67861 -14.6553 59.6809 -4.60178
58 1 5.15084 -12.3201 -2.12857 -4.52296
59 1 7.48961 -14.765 -2.06554 -4.99283
60 1 7.67438 -12.2199 -5.31264 -4.36069
61 1 6.3139 -13.4543 -3.71391 -4.35086
62 1 6.13215 -10.964 -0.465243 -4.4904
63 1 8.68949 -13.1966 -0.6953 -4.46214
64 1 8.40303 -10.6063 -3.43256 -4.45573
65 1 9.91924 -15.134 59.5828 -4.07983
66 1 9.93007 -11.6381 -1.95429 -4.35301
67 1 12.1984 -14.0104 -2.12009 -4.26765
68 1 11.6729 -11.4485 -4.90994 -4.40357
69 1 10.5237 -13.165 -3.67686 -4.9104
70 1 11.1111 -10.9032 0.0187831 -4.52239
71 1 13.8576 -12.6261 -1.21765 -4.13899
72 1 13.5956 -10.5904 -2.43112 -4.93903
73 1 15.4773 -11.9992 -2.95303 -4.10543
74 1 15.8437 -10.1379 -1.65952 -3.98513
75 1 -17.2267 -7.63631 58.8208 -4.28576
76 1 -18.1793 -5.73628 -0.0151031 -4.25858
77 1 -15.4627 -9.15992 -0.570828 -4.19367
78 1 -16.2497 -6.4485 -3.91235 -4.29614
79 1 -14.5699 -10.4277 -5.05321 -4.39604
80 1 -14.9109 -7.48932 -2.1905 -4.46557
81 1 -12.2372 -10.0581 -2.33148 -4.55236
82 1 -12.1133 -7.50065 59.5032 -4.57043
83 1 -13.5039 -8.71313 -3.72914 -4.66976
84 1 -13.1868 -6.31125 -0.850038 -4.41917
85 1 -10.8783 -8.73384 -0.767606 -4.42788
86 1 -10.8963 -6.06504 -3.76894 -4.61194
87 1 -9.4996 -10.0591 -5.13394 -4.47032
88 1 -9.51612 -7.23856 -2.1971 -4.49782
89 1 -7.3968 -9.6429 -2.06498 -4.4774
90 1 -7.09652 -7.10775 59.3257 -4.43757
91 1 -8.3259 -8.44837 -3.85287 -4.50613
92 1 -8.50892 -6.05097 -0.477 -4.48715
93 1 -6.35278 -8.43808 -0.398573 -4.46203
94 1 -6.02312 -6.00399 -3.5456 -4.50562
95 1 -4.75677 -9.60153 -5.32508 -4.46464
96 1 -4.92267 -7.36003 -1.96981 -4.52662
97 1 -2.38735 -9.61505 -1.69936 -4.4285
98 1 -2.25626 -7.08049 -5.02044 -4.49674
99 1 -3.46242 -8.44882 -3.5527 -4.44319
100 1 -3.70319 -6.03826 -0.482808 -4.43827
101 1 -1.12253 -8.3392 -0.107349 -4.50147
102 1 -1.10235 -5.71172 -3.38168 -4.46644
103 1 0.0967932 -9.6946 59.706 -4.52494
104 1 0.0232057 -7.11845 -1.77889 -4.49264
105 1 2.44424 -9.56821 -1.83857 -4.46317
106 1 2.70735 -7.42655 -5.08767 -4.4479
107 1 1.22433 -8.31894 -3.4167 -4.4531
108 1 1.40602 -5.90471 -0.243202 -4.4446
109 1 3.75637 -8.45467 -0.0821316 -4.50312
110 1 3.73321 -5.99411 -3.57719 -4.47965
111 1 5.12657 -9.99012 -4.87328 -4.3716
112 1 4.82271 -7.06118 -1.74135 -4.45625
113 1 7.2649 -9.40929 -1.7456 -4.47004
114 1 7.32288 -7.22693 -5.06036 -4.48306
115 1 5.9952 -8.31712 -3.41271 -4.46485
116 1 6.11326 -5.80887 -0.204394 -4.38731
117 1 8.58659 -8.56295 -0.0481929 -4.43093
118 1 8.60439 -6.00825 -3.44011 -4.40988
119 1 10.0465 -9.71359 -4.72233 -4.41291
120 1 9.57858 -7.10525 -1.57898 -4.3891
121 1 12.2104 -9.22259 -1.14961 -4.4436
122 1 12.0823 -7.16287 -4.80297 -4.42366
123 1 10.971 -8.41838 -3.04704 -4.43514
124 1 10.9749 -5.96246 0.22422 -4.3642
125 1 13.7722 -8.01348 0.131231 -4.5653
126 1 13.4016 -5.96826 -3.33766 -4.59434
127 1 14.3799 -9.36008 -4.37941 -4.51736
128 1 14.827 -7.1281 -1.83613 -4.62141
129 1 16.3682 -6.2475 -4.68387 -4.52417
130 1 16.1464 -8.32796 -3.32355 -4.46444
131 1 16.034 -5.25018 -0.946075 -4.4873
132 1 18.3044 -4.88644 -4.72427 -3.82965
133 1 -17.763 -5.12956 -2.32937 -4.1325
134 1 -17.2961 -2.36022 -4.91262 -4.9898
135 1 -18.6056 -2.94192 -3.08324 -4.22548
136 1 -17.3165 -1.87468 -1.33165 -4.57454
137 1 -16.1463 -4.79935 -0.664656 -4.42617
138 1 -15.9727 -0.631615 -3.9305 -4.57227
139 1 -14.7411 -4.9296 -5.00267 -4.66265
140 1 -15.1923 -2.33712 -2.41118 -4.45887
141 1 -12.3519 -4.76877 -2.40233 -4.5379
142 1 -12.2942 -2.24869 59.1575 -4.50495
143 1 -13.5466 -3.32961 -3.85307 -4.44913
144 1 -13.8242 -1.1402 -0.838187 -4.52842
145 1 -11.03 -3.56343 -0.827468 -4.56983
146 1 -10.9094 -1.09347 -3.93696 -4.44508
147 1 -9.71408 -4.7925 59.3173 -4.47546
148 1 -9.66706 -2.23235 -2.20281 -4.55344
149 1 -7.23563 -4.63833 -2.01499 -4.49977
150 1 -7.33919 -2.24535 59.3936 -4.43682
151 1 -8.48775 -3.5954 -3.63521 -4.48048
152 1 -8.31013 -0.886686 -0.732571 -4.48192
153 1 -6.06901 -3.33288 -0.526278 -4.432
154 1 -6.15426 -1.04976 -3.65269 -4.51261
155 1 -4.75464 -4.55743 59.649 -4.4769
156 1 -4.75778 -2.04082 -2.04119 -4.47254
157 1 -2.57239 -4.65825 -1.95512 -4.48037
158 1 -2.15542 -2.11404 -5.44733 -4.50334
159 1 -3.52079 -3.15675 -3.64573 -4.45369
160 1 -3.44274 -0.860841 -0.470062 -4.45241
161 1 -1.07458 -3.45293 -0.477177 -4.48158
162 1 -1.02986 -0.754729 -3.82775 -4.50145
163 1 0.311562 -4.85688 -5.20287 -4.35009
164 1 -0.00355828 -2.01059 -2.08629 -4.44462
165 1 2.42056 -4.77771 -1.98406 -4.40381
166 1 2.75584 -2.07294 -5.14389 -4.42636
167 1 1.42106 -3.25616 -3.57564 -4.48848
168 1 1.19046 -0.986474 -0.309069 -4.48346
169 1 3.67015 -3.56186 -0.227171 -4.47513
170 1 3.85924 -0.832619 -3.32041 -4.40681
171 1 5.23601 -4.70463 -5.02554 -4.43443
172 1 4.82448 -2.10567 -1.74919 -4.41437
173 1 7.52518 -4.49637 -1.81859 -4.43501
174 1 7.74167 -2.14685 -4.75172 -4.45466
175 1 6.16956 -3.26543 -3.38763 -4.52159
176 1 5.99864 -1.06847 -0.00715807 -4.49845
177 1 8.56818 -3.3435 0.0593359 -4.46188
178 1 8.80018 -0.881239 -3.1049 -4.37661
179 1 9.88344 -4.61764 -4.99022 -4.46137
180 1 10.0399 -2.09048 -1.3324 -4.39465
181 1 12.1623 -4.71316 -1.59386 -4.42519
182 1 12.1176 -1.98109 -4.67298 -4.42436
183 1 10.8789 -3.45897 -3.1797 -4.39501
184 1 11.1836 -1.03672 0.492399 -4.37446
185 1 14.0449 -3.93007 -0.500369 -4.43354
186 1 13.1855 -1.00775 -2.73728 -4.42617
187 1 14.576 -4.72864 -4.84608 -4.49491
188 1 14.8735 -2.15635 -1.71417 -4.47965
189 1 17.6311 -3.99353 -2.54186 -4.51113
190 1 17.1986 -1.90281 59.6973 -4.62617
191 1 15.7481 -3.08438 -3.67855 -4.63752
192 1 15.9839 -1.28371 0.192527 -4.33003
193 1 18.8222 -2.11653 -1.60202 -4.04756
194 1 18.4684 -0.511589 -3.42927 -4.0227
195 1 -19.3051 -1.01134 -4.38716 -4.35731
196 1 -17.9953 0.406618 -1.02277 -4.36453
197 1 -17.3879 2.55516 -4.98705 -4.26597
198 1 -17.8159 0.611722 -3.39703 -4.39719
199 1 -17.531 4.46045 0.7874 -4.30852
200 1 -16.059 1.42535 -0.309115 -4.48425
201 1 -16.116 3.92769 -3.43137 -4.18333
202 1 -14.6178 0.206635 59.0726 -4.52804
203 1 -14.9208 2.15295 -2.34741 -4.53003
204 1 -12.1805 -0.0274919 -2.20634 -4.49077
205 1 -12.3665 2.54105 59.0233 -4.47416
206 1 -13.3378 1.22429 -3.87773 -4.42311
207 1 -13.7313 3.60541 -1.00429 -4.37417
208 1 -11.2142 1.44961 -0.607094 -4.51371
209 1 -11.2207 3.85376 -4.05163 -4.50821
210 1 -9.78335 0.278117 59.1355 -4.48172
211 1 -10.0679 2.71394 -2.29023 -4.4667
212 1 -7.1774 0.559445 -2.2754 -4.49453
213 1 -7.39799 2.7792 59.2958 -4.42335
214 1 -8.69566 1.5801 -3.91622 -4.45866
215 1 -8.68083 3.88408 -0.783135 -4.54265
216 1 -5.94018 1.54966 -0.501956 -4.4889
217 1 -6.18758 3.91248 -3.65081 -4.50357
218 1 -5.09068 0.255078 59.3559 -4.4842
219 1 -4.80659 2.78142 -2.12679 -4.50267
220 1 -2.30754 0.502579 -2.26009 -4.42997
221 1 -2.42961 3.09376 -5.34603 -4.47777
222 1 -3.68487 1.57186 -3.85006 -4.5164
223 1 -3.38696 4.04735 -0.559557 -4.48194
224 1 -0.882816 1.76443 -0.645932 -4.38469
225 1 -0.926219 3.98939 -3.77584 -4.51263
226 1 0.311618 0.612585 -5.35405 -4.48441
227 1 0.478 2.98325 -2.17111 -4.4567
228 1 2.5615 0.331129 -1.69784 -4.44153
229 1 2.90795 3.04357 -4.88279 -4.54116
230 1 1.7107 1.50923 -3.54962 -4.50092
231 1 1.33345 4.10944 -0.275617 -4.38011
232 1 3.78724 1.60909 -0.240449 -4.50752
233 1 4.05202 4.25821 -3.16436 -4.53088
234 1 5.27962 0.354982 -4.66902 -4.51478
235 1 5.16602 2.89281 -1.62123 -4.52869
236 1 7.40898 0.243058 -1.43792 -4.4854
237 1 7.86743 3.0319 -4.89234 -4.30762
238 1 6.55148 1.70657 -3.143 -4.44191
239 1 6.16774 4.02069 0.201735 -4.4968
240 1 8.56115 1.44989 0.136029 -4.43728
241 1 8.78959 4.2205 -2.8536 -4.44597
242 1 9.85271 0.530134 -4.77411 -4.3494
243 1 9.83544 2.72668 -1.27996 -4.54441
244 1 12.1216 0.317584 -1.14708 -4.40328
245 1 12.3865 3.38223 -3.97671 -4.9308
246 1 11.108 1.57489 -2.94469 -4.25749
247 1 10.9054 3.85461 0.514351 -4.4138
248 1 13.4205 1.41404 0.573709 -4.51372
249 1 13.9296 4.1392 -2.18365 -4.4836
250 1 14.3904 0.182091 -4.37242 -4.38711
251 1 14.8266 2.42571 -0.921879 -4.36127
252 1 17.4117 -0.0867432 -1.29735 -4.80386
253 1 16.3174 2.70122 -3.90889 -4.34354
254 1 15.6594 0.912493 -2.50445 -4.29387
255 1 16.4405 3.98179 -0.0844375 -4.87385
256 1 18.8033 0.875743 0.551479 -4.22556
257 1 18.1006 4.16897 -4.0856 -4.31227
258 1 18.2769 1.72303 -4.65279 -4.17236
259 1 -17.359 4.95102 -1.5188 -4.08711
260 1 -16.8364 7.96247 57.7771 -4.42501
261 1 -17.3502 6.55781 -5.14108 -4.0631
262 1 -16.3984 7.14098 -0.921218 -4.28303
263 1 -16.7123 8.92843 -4.54099 -4.07736
264 1 -15.3164 5.17567 59.0533 -5.17642
265 1 -15.2682 8.01425 -2.77787 -4.46003
266 1 -12.5797 5.08497 -2.53178 -4.54224
267 1 -12.7051 7.4858 58.9891 -4.53638
268 1 -14.0539 6.44679 -3.9614 -4.27622
269 1 -13.7065 8.88369 -1.24859 -4.49822
270 1 -11.1327 6.12517 -1.04322 -4.46823
271 1 -11.2168 8.67298 -4.43928 -4.48264
272 1 -9.95436 5.18273 59.067 -4.50064
273 1 -10.1344 7.60217 -2.5889 -4.53159
274 1 -7.38673 5.34132 -2.16992 -4.51535
275 1 -7.47267 7.5454 59.0129 -4.52495
276 1 -8.64181 6.31077 -3.92479 -4.4785
277 1 -8.51917 8.66349 -1.10031 -4.40711
278 1 -6.04872 6.36502 -0.509135 -4.51683
279 1 -6.04549 8.64016 -4.10734 -4.53276
280 1 -4.86058 5.29381 59.481 -4.44178
281 1 -4.99075 7.63851 -2.15893 -4.40693
282 1 -2.09034 5.34149 -2.11211 -4.46468
283 1 -2.19828 7.78595 59.2441 -4.53107
284 1 -3.47792 6.56239 -3.80563 -4.46444
285 1 -3.64613 8.79503 -0.642849 -4.45007
286 1 -1.05069 6.67521 -0.432099 -4.38154
287 1 -0.861095 9.02198 -3.82336 -4.53949
288 1 0.297754 5.62461 -4.9194 -4.53071
289 1 0.35335 8.05883 -1.9467 -4.34508
290 1 2.63323 5.41218 -1.7632 -4.41213
291 1 3.03642 8.24802 -4.79949 -4.12938
292 1 1.71871 6.87508 -3.48 -4.51999
293 1 1.08338 8.99128 0.141311 -4.3836
294 1 3.56441 6.52289 0.315463 -4.41958
295 1 4.11263 9.19366 -2.52727 -4.50466
296 1 5.43733 5.73679 -4.50953 -4.33945
297 1 5.17998 7.77332 -1.02018 -4.65204
298 1 7.51608 5.39536 -1.19225 -4.51714
299 1 8.59614 8.44577 58.5415 -4.01386
300 1 6.6289 6.94594 -2.70681 -4.56237
301 1 6.49009 9.16676 0.305549 -4.41834
302 1 8.78502 6.6227 0.557204 -4.3757
303 1 8.26231 8.47699 -3.34826 -4.12001
304 1 10.5609 5.09999 -4.10579 -4.20887
305 1 9.59113 7.79643 -1.39995 -4.36771
306 1 12.2998 5.07254 -0.894259 -4.63458
307 1 12.2736 7.7811 58.0865 -4.54847
308 1 11.4537 6.66594 -2.41818 -4.41436
309 1 11.0929 8.98925 1.57254 -4.45098
310 1 13.4465 6.08389 0.873797 -4.66132
311 1 12.1999 10.1654 58.8077 -4.16134
312 1 13.6276 4.96917 59.3052 -4.34638
313 1 14.7126 7.56718 -0.51865 -4.42519
314 1 17.3478 5.28616 -2.05131 -3.76091
315 1 15.2077 6.66631 -4.98873 -4.21402
316 1 15.1931 6.19107 -2.41816 -4.45543
317 1 16.1394 8.42042 1.37678 -4.30826
318 1 18.3212 5.23621 0.708495 -3.83162
319 1 -15.3185 12.9546 0.318351 -3.7865
320 1 -15.046 10.238 59.0137 -4.55557
321 1 -14.81 13.2056 -2.55713 -3.79885
322 1 -12.3536 10.1978 -2.81271 -4.57098
323 1 -12.5315 12.528 59.2045 -4.68564
324 1 -13.9981 11.4593 -3.90715 -4.5895
325 1 -13.5104 14.0559 -0.716179 -4.97495
326 1 -10.634 11.1037 -1.47244 -4.4152
327 1 -11.3515 14.1829 -4.37953 -4.63449
328 1 -9.88811 10.0663 58.8107 -4.65334
329 1 -10.0397 12.5926 -3.16723 -4.47504
330 1 -7.60421 9.99342 -2.87148 -4.52757
331 1 -7.12406 12.6579 58.5619 -4.55563
332 1 -8.45921 11.4045 -4.59313 -4.5224
333 1 -8.66939 13.6873 -1.60426 -4.45374
334 1 -5.99024 11.0919 -1.40599 -4.52865
335 1 -5.61328 13.8972 -4.65858 -4.36932
336 1 -4.82675 10.2123 59.234 -4.50814
337 1 -4.96258 12.8034 -2.66098 -4.47535
338 1 -2.42093 10.147 -2.38667 -4.43435
339 1 -2.08863 12.6442 59.1945 -4.55777
340 1 -3.52448 11.4676 -3.98135 -4.61606
341 1 -3.33078 13.552 -1.20372 -4.33446
342 1 -1.25156 11.2692 -0.545724 -4.42207
343 1 -0.70001 13.8282 -4.0359 -4.46634
344 1 0.387159 10.3367 -5.32049 -4.13169
345 1 -0.0639501 12.6752 -1.99761 -4.51166
346 1 2.50332 10.3121 -1.34919 -4.67391
347 1 3.72434 13.4688 58.4813 -4.09453
348 1 1.71888 11.7008 -3.17602 -4.30548
349 1 1.23336 13.5925 -0.156776 -4.52702
350 1 3.73511 11.5583 0.255344 -4.55957
351 1 3.36309 13.2787 -3.34795 -4.19807
352 1 5.72905 10.9072 58.6453 -4.12087
353 1 4.87337 12.6707 -1.55799 -4.06001
354 1 7.36111 10.2235 -1.8573 -4.43482
355 1 7.2585 12.4176 57.6761 -4.54359
356 1 5.54189 10.9806 -3.17699 -4.25294
357 1 5.83837 14.2678 0.642924 -4.12899
358 1 8.5721 11.8504 1.1509 -4.61263
359 1 8.58498 14.1144 58.8032 -4.43654
360 1 10.0724 9.9637 57.4401 -4.94788
361 1 8.43481 12.2475 -1.11936 -4.38099
362 1 10.9098 9.68973 -0.725089 -4.98254
363 1 11.6833 11.8249 57.1209 -4.16249
364 1 10.5691 11.717 -2.14669 -4.39116
365 1 10.1476 13.6283 1.44046 -4.57133
366 1 12.8928 10.5202 1.88081 -4.63402
367 1 12.2442 12.6898 -0.828529 -3.6593
368 1 14.1537 9.92512 57.5472 -4.01833
369 1 13.2103 10.5727 -0.402393 -4.3872
370 1 12.77 8.59955 -1.69631 -4.10606
371 1 -13.3037 15.0448 -3.07525 -3.80533
372 1 -12.0812 15.9032 -0.582548 -3.86793
373 1 -8.85324 15.3926 58.5508 -4.47881
374 1 -7.33778 14.8848 -3.36799 -4.54546
375 1 -7.74369 17.3771 57.9274 -4.33315
376 1 -8.26728 16.766 -4.38431 -4.32071
377 1 -5.83819 15.8077 -1.90033 -4.6879
378 1 -6.10612 17.6025 -5.0355 -4.25272
379 1 -4.92453 15.7735 58.7182 -4.94253
380 1 -4.67443 17.6467 -3.05895 -4.39377
381 1 -2.33198 14.9503 -2.83405 -4.44502
382 1 -1.75431 17.9975 58.9038 -4.02283
383 1 -3.1469 16.608 -4.48779 -4.38943
384 1 -4.7263 18.5264 -0.77798 -4.05596
385 1 -1.3706 16.0374 -0.989717 -4.55122
386 1 -0.391335 18.8049 -3.93364 -4.42945
387 1 0.755361 15.1507 59.1925 -4.175
388 1 0.128241 17.45 -2.11912 -4.54368
389 1 2.54288 14.8388 -1.77421 -4.30689
390 1 3.22509 18.0757 -3.40315 -4.23205
391 1 1.68623 16.2758 -3.56559 -4.9039
392 1 0.901587 18.7119 -0.290947 -4.53578
393 1 3.24362 16.1779 0.101147 -4.53784
394 1 2.88371 19.4545 -1.41923 -4.34652
395 1 4.88819 15.2413 57.3967 -4.37435
396 1 4.519 18.027 -0.50586 -4.57529
397 1 7.72672 17.1331 -5.49849 -4.35185
398 1 8.69887 18.0007 57.1958 -4.14461
399 1 6.54515 15.1399 59.1318 -4.31239
400 1 4.05147 18.938 1.66234 -3.63919
401 1 7.11177 16.1018 1.38793 -4.58853
402 1 9.15768 14.813 56.6104 -4.56123
403 1 10.1952 13.7294 -0.844606 -4.43197
404 1 9.78421 16.2197 58.4142 -4.49735
405 1 1.80893 19.9616 -3.53386 -4.19361
406 1 -11.5604 -15.5063 0.964093 -4.39689
407 1 -7.32148 -17.3247 0.682552 -3.67454
408 1 -8.62901 -15.8655 5.7293 -3.52272
409 1 -6.09819 -17.8566 6.46617 -4.04957
410 1 -5.9917 -16.1487 2.3274 -4.51936
411 1 -4.86272 -17.1357 4.31503 -4.34178
412 1 -2.55125 -17.9297 0.811574 -3.98586
413 1 -2.91892 -18.1348 3.20521 -4.01644
414 1 -3.45789 -15.6451 5.37981 -4.48078
415 1 -1.63722 -18.6896 5.14867 -4.14909
416 1 -1.10085 -16.7103 2.47469 -5.28077
417 1 0.913636 -19.956 -1.73978 -4.1916
418 1 0.252536 -17.8054 4.09623 -4.16587
419 1 2.29594 -17.7422 0.469776 -4.4384
420 1 0.453731 -18.5477 1.79246 -4.09791
421 1 0.997851 -15.8255 5.21357 -4.51202
422 1 4.16365 -18.0613 5.90945 -4.5166
423 1 3.46059 -16.317 2.13404 -4.49123
424 1 5.04422 -17.2538 3.74627 -4.43771
425 1 7.57038 -17.29 0.359247 -4.42143
426 1 7.36487 -17.0983 2.79038 -4.18966
427 1 5.66016 -15.4374 5.01912 -4.72649
428 1 8.23088 -15.2946 1.62204 -4.42518
429 1 11.8954 -14.4643 7.61679 -4.16514
430 1 -16.6197 -9.25126 2.83403 -4.30767
431 1 -15.7607 -11.5805 2.95401 -4.15421
432 1 -12.5727 -14.2582 2.62884 -4.40332
433 1 -12.4879 -12.2877 1.41585 -4.36015
434 1 -14.6454 -13.3938 1.72133 -4.28954
435 1 -14.2232 -11.2887 4.73978 -4.99771
436 1 -11.5243 -13.978 4.79898 -4.52256
437 1 -10.9539 -10.9639 2.75722 -4.5754
438 1 -9.32247 -14.604 0.681033 -4.23189
439 1 -9.81 -12.4306 4.13733 -4.59881
440 1 -7.35012 -14.8986 3.86976 -4.54448
441 1 -7.1706 -12.1666 0.986504 -4.44551
442 1 -8.42736 -13.3808 2.51933 -4.4753
443 1 -8.80398 -10.9151 5.72588 -4.4781
444 1 -6.35932 -13.4624 5.53987 -4.55356
445 1 -6.09174 -10.9464 2.7222 -4.43721
446 1 -4.58221 -14.737 0.939875 -4.47878
447 1 -4.92576 -12.1687 4.24008 -4.48094
448 1 -1.90818 -14.6737 3.93666 -4.19423
449 1 -2.24599 -12.0358 1.32815 -4.38433
450 1 -3.60466 -13.474 2.75141 -4.5714
451 1 -3.74368 -10.9116 6.07213 -4.50348
452 1 -1.33067 -13.3093 5.83519 -4.56698
453 1 -1.1784 -10.9861 3.11427 -4.47724
454 1 -0.232524 -14.8826 0.962478 -4.31574
455 1 0.325833 -12.2426 4.50118 -4.36959
456 1 2.44977 -14.9 3.77496 -4.54473
457 1 2.60864 -12.1538 1.08472 -4.54122
458 1 1.1416 -13.5398 2.39631 -4.47331
459 1 1.35913 -11.1457 6.45533 -4.33138
460 1 3.94418 -13.9548 5.39181 -4.4647
461 1 3.63429 -10.9172 2.87181 -4.33556
462 1 4.87643 -14.8596 0.93251 -4.50775
463 1 5.02168 -12.1303 4.36826 -4.48086
464 1 7.46768 -14.7831 3.6784 -4.40011
465 1 7.53354 -12.1037 1.15755 -4.39238
466 1 5.97264 -13.3822 2.51706 -4.57226
467 1 6.11315 -10.9372 6.2166 -4.27548
468 1 8.68611 -12.8733 6.77242 -3.58146
469 1 8.72932 -11.1161 3.06295 -4.39036
470 1 10.5344 -15.533 1.72564 -3.70158
471 1 10.0369 -12.3528 4.72934 -4.5309
472 1 11.9868 -13.9588 4.80001 -4.17619
473 1 12.8673 -12.2116 0.92365 -4.46709
474 1 12.0983 -13.8574 2.4739 -3.87967
475 1 11.1438 -10.8617 6.09035 -4.51062
476 1 12.4979 -12.237 7.45133 -4.7137
477 1 13.9988 -11.0529 2.78612 -4.30064
478 1 14.1225 -12.8489 4.46486 -3.70483
479 1 14.7144 -12.3817 6.82261 -4.46221
480 1 -17.0022 -7.83003 0.934263 -4.18428
481 1 -18.2119 -4.92638 7.39875 -4.31749
482 1 -16.2246 -8.39563 5.08578 -4.39022
483 1 -15.9981 -6.24738 2.45792 -4.56729
484 1 -14.5775 -9.88784 1.67922 -4.41243
485 1 -14.6072 -7.05202 4.13277 -4.60843
486 1 -12.4147 -9.73219 4.17978 -4.42387
487 1 -12.0069 -7.4212 0.828002 -4.4409
488 1 -13.3912 -8.2485 2.56242 -4.52544
489 1 -13.1498 -6.08666 5.66874 -4.50624
490 1 -11.1176 -8.6107 6.01331 -4.44238
491 1 -10.8761 -6.07271 2.31253 -4.44364
492 1 -9.72224 -9.86009 0.998209 -4.3576
493 1 -10.1226 -7.42262 4.1883 -4.41376
494 1 -7.33344 -9.74249 4.35261 -4.43241
495 1 -7.59824 -7.38078 1.26314 -4.42724
496 1 -8.69579 -8.70196 2.84022 -4.45671
497 1 -8.77828 -6.07078 5.73073 -4.49209
498 1 -6.30765 -8.58509 6.1455 -4.48972
499 1 -6.14287 -6.35488 2.90673 -4.49289
500 1 -4.88595 -9.7027 1.00035 -4.50052
501 1 -4.9262 -7.50027 4.46824 -4.46414
502 1 -2.34233 -9.61813 4.68324 -4.48321
503 1 -2.49989 -7.11044 1.36362 -4.5292
504 1 -3.60921 -8.64609 2.81609 -4.42707
505 1 -3.76731 -6.02944 5.95106 -4.44109
506 1 -1.12852 -8.27635 6.25293 -4.46958
507 1 -1.13385 -5.95836 2.95538 -4.45054
508 1 0.0740293 -9.60237 1.53436 -4.46673
509 1 0.0719286 -7.1315 4.47357 -4.47978
510 1 2.61379 -9.80762 4.97479 -4.30702
511 1 2.54481 -7.16669 1.43418 -4.43302
512 1 1.46519 -8.50123 3.16342 -4.46024
513 1 1.29525 -6.03357 6.13019 -4.45724
514 1 3.61901 -8.30676 6.4386 -4.55124
515 1 3.92648 -5.93728 3.13772 -4.43696
516 1 5.11234 -9.67944 1.30717 -4.40565
517 1 5.0612 -7.1747 4.90036 -4.45356
518 1 7.43711 -9.85653 4.66039 -4.50519
519 1 7.30771 -7.24479 1.40004 -4.44274
520 1 6.22345 -8.51478 3.17937 -4.37478
521 1 6.19169 -5.73671 6.39305 -4.59551
522 1 8.6302 -8.48172 6.25062 -4.52059
523 1 8.40624 -6.11848 3.09459 -4.47695
524 1 9.91217 -9.52811 1.66358 -4.46093
525 1 9.84611 -7.1429 4.68685 -4.47396
526 1 12.7107 -9.91552 4.54683 -4.50662
527 1 12.3917 -6.93008 1.81107 -4.42728
528 1 11.3245 -8.42223 3.36482 -4.56953
529 1 11.0464 -6.12679 6.57495 -4.50646
530 1 13.825 -8.49315 6.05872 -4.48863
531 1 13.3862 -5.69564 3.66289 -4.41629
532 1 15.201 -9.60485 1.04195 -4.16687
533 1 15.0581 -7.0943 4.59136 -4.56926
534 1 16.1576 -5.70807 1.35639 -4.46804
535 1 15.8399 -7.92399 2.46775 -3.6163
536 1 16.3994 -6.14772 6.52178 -3.92941
537 1 17.7611 -4.42366 2.5006 -4.39132
538 1 -17.5942 -5.07545 3.7236 -4.40302
539 1 -16.6269 -3.04074 0.683221 -4.31759
540 1 -18.3977 -4.09578 1.70229 -4.51399
541 1 -18.7429 -1.99245 2.78661 -3.70072
542 1 -16.0241 -3.86291 5.19388 -4.5175
543 1 -16.4414 -1.34381 2.36863 -5.40815
544 1 -14.5064 -5.48652 0.837591 -4.42067
545 1 -14.7391 -2.49674 3.77789 -4.21843
546 1 -12.3457 -4.74936 3.82209 -4.40555
547 1 -12.358 -2.29806 0.630753 -4.58101
548 1 -13.6001 -3.72177 2.06746 -4.49286
549 1 -13.5949 -1.59336 5.71351 -4.24736
550 1 -11.1082 -3.60911 5.51191 -4.40228
551 1 -10.9963 -1.17504 2.20891 -4.45165
552 1 -9.81897 -4.65577 0.838269 -4.50667
553 1 -9.75034 -2.34577 3.95593 -4.46399
554 1 -7.44314 -4.82975 4.11206 -4.46332
555 1 -7.37702 -2.06475 1.16031 -4.43683
556 1 -8.43081 -3.60664 2.48605 -4.45917
557 1 -8.62919 -1.20668 5.738 -4.44762
558 1 -6.19302 -3.66104 5.82444 -4.43031
559 1 -6.13474 -0.830071 2.79836 -4.51802
560 1 -5.07022 -4.84614 1.22284 -4.42204
561 1 -5.00385 -2.25388 4.30731 -4.50956
562 1 -2.60172 -4.76556 4.26801 -4.52318
563 1 -2.19628 -2.16941 1.13409 -4.45264
564 1 -3.71577 -3.51295 2.65245 -4.49568
565 1 -3.7549 -1.04473 5.9968 -4.42504
566 1 -1.34723 -3.52926 5.96336 -4.42789
567 1 -1.33511 -0.766121 2.78743 -4.46102
568 1 0.106738 -4.6987 1.21892 -4.43023
569 1 -0.14625 -2.29936 4.32568 -4.48653
570 1 2.48937 -4.7462 4.62177 -4.48206
571 1 2.36829 -2.34605 1.32848 -4.47435
572 1 1.24825 -3.57154 2.97379 -4.49283
573 1 1.06942 -0.97054 6.02362 -4.42293
574 1 3.6386 -3.22983 6.24902 -4.49367
575 1 3.5183 -1.03023 3.0024 -4.50956
576 1 5.08087 -4.63606 1.38317 -4.33608
577 1 4.96933 -2.06886 4.66426 -4.3988
578 1 7.46217 -4.62967 4.76373 -4.38934
579 1 7.36893 -2.08626 1.62284 -4.49795
580 1 6.06823 -3.44665 3.15391 -4.44607
581 1 6.00271 -1.12641 6.50327 -4.41208
582 1 8.59622 -3.7115 6.64923 -4.4365
583 1 8.5511 -0.942367 3.304 -4.43603
584 1 9.72728 -4.70759 1.76192 -4.51976
585 1 9.76009 -2.17131 5.06053 -4.39305
586 1 12.1534 -4.55578 5.34125 -4.46966
587 1 12.4297 -2.39002 2.16422 -4.27345
588 1 11.014 -3.66219 3.52879 -4.49949
589 1 10.9517 -1.15842 6.87596 -4.5001
590 1 13.5209 -3.37182 6.89491 -4.49348
591 1 13.4756 -1.03314 3.72997 -4.5044
592 1 14.2907 -4.21508 1.96626 -4.87226
593 1 14.9373 -2.17142 5.30722 -4.51738
594 1 17.3083 -4.50457 4.96706 -3.49464
595 1 18.0182 -2.40967 0.905108 -4.18488
596 1 15.9969 -3.08626 3.41545 -4.3437
597 1 16.2954 -0.454103 6.16085 -4.28153
598 1 18.2916 -1.11233 7.1368 -4.37882
599 1 18.8603 -0.640073 2.34632 -4.32438
600 1 -18.2648 -0.13178 1.38367 -4.04095
601 1 -16.8367 0.233805 4.18487 -4.4403
602 1 -16.4138 2.70767 1.66341 -4.6269
603 1 -18.0956 1.74 3.04173 -4.49243
604 1 -17.7276 3.43582 4.8386 -4.4389
605 1 -15.5263 0.975368 5.89501 -4.55581
606 1 -15.866 4.08099 3.45186 -4.51605
607 1 -14.799 -0.0270897 1.07008 -4.31455
608 1 -14.4032 2.435 4.43415 -4.50233
609 1 -12.2122 -0.164049 4.0603 -4.3727
610 1 -12.4989 2.57412 0.959796 -4.36668
611 1 -13.491 1.19845 2.52203 -4.43919
612 1 -13.1322 3.76762 5.93404 -4.53335
613 1 -11.095 1.18687 5.74927 -4.43634
614 1 -11.3147 3.99862 2.47965 -4.38557
615 1 -9.7913 0.258467 0.846699 -4.54959
616 1 -10.1631 2.78651 4.20663 -4.40787
617 1 -7.51406 0.400426 4.29717 -4.48592
618 1 -7.4531 2.73338 0.895164 -4.44706
619 1 -8.70422 1.57433 2.58764 -4.4261
620 1 -8.73886 3.80359 5.92665 -4.47942
621 1 -6.22057 1.36576 6.03464 -4.43152
622 1 -6.08849 3.84882 2.66691 -4.39097
623 1 -4.75913 0.260954 1.10578 -4.47136
624 1 -5.03209 2.61147 4.40937 -4.42457
625 1 -2.49716 0.404117 4.47813 -4.4909
626 1 -2.29887 2.75494 1.06541 -4.39941
627 1 -3.58751 1.61782 2.73655 -4.41643
628 1 -4.02114 4.03065 6.07547 -4.51982
629 1 -1.08921 1.68919 5.98303 -4.43814
630 1 -1.38002 4.0694 2.82842 -4.47968
631 1 0.081773 0.51301 1.28644 -4.46903
632 1 0.138796 2.83754 4.32552 -4.40138
633 1 2.2992 0.355317 4.52352 -4.43319
634 1 2.8169 3.24477 1.20262 -4.37527
635 1 1.5511 1.78253 2.72671 -4.45146
636 1 0.968687 4.11106 6.32636 -4.41556
637 1 3.62239 1.42428 6.33305 -4.51012
638 1 3.75284 4.13954 3.31176 -4.41048
639 1 4.77705 0.337298 1.4584 -4.4819
640 1 4.90214 2.85491 5.02302 -4.41147
641 1 7.21572 0.283572 4.97786 -4.43854
642 1 7.31359 2.69225 1.76998 -4.44802
643 1 5.91558 1.49362 3.3069 -4.42078
644 1 5.8619 4.17604 6.87661 -4.46617
645 1 8.45493 1.65274 6.7212 -4.47278
646 1 8.24358 3.91894 3.67299 -4.42206
647 1 9.83514 0.447726 1.80771 -4.46318
648 1 9.74293 2.92713 5.18668 -4.51322
649 1 12.3202 0.266192 5.50147 -4.48982
650 1 12.1833 2.56678 2.23515 -4.51794
651 1 10.9363 1.35996 3.79148 -4.43469
652 1 10.9509 3.89634 6.9192 -4.44802
653 1 13.6476 1.64363 6.96331 -4.47881
654 1 13.7183 3.95261 3.5548 -4.43453
655 1 14.7056 -0.0818556 1.85561 -4.49977
656 1 14.795 2.48985 5.11063 -4.4236
657 1 17.4842 -0.0412898 4.2717 -4.56566
658 1 17.1799 2.33858 1.36178 -4.52017
659 1 15.9785 1.45033 3.27559 -4.54332
660 1 16.2415 3.70348 6.50327 -4.32463
661 1 19.0041 1.59846 4.89196 -4.45456
662 1 18.7714 3.63305 2.31883 -4.5923
663 1 20.0006 1.54147 2.68984 -4.17519
664 1 -17.9492 5.82727 5.09502 -4.45491
665 1 -16.401 7.63611 1.41805 -4.60126
666 1 -17.3939 5.93436 2.78162 -4.1886
667 1 -15.7437 6.41637 5.65689 -4.59672
668 1 -15.4572 9.71037 1.95749 -3.68733
669 1 -15.3725 5.10839 -0.174857 -4.87836
670 1 -14.0889 6.80696 3.96798 -4.40866
671 1 -12.3451 5.17815 4.27332 -4.57019
672 1 -12.8517 7.26603 0.222852 -4.52425
673 1 -14.4316 6.32576 1.62296 -4.31677
674 1 -13.0156 8.48352 5.2327 -4.33196
675 1 -10.7604 6.26196 5.6026 -4.41424
676 1 -11.3961 8.45398 1.83979 -4.30406
677 1 -10.0296 5.16694 0.826927 -4.39948
678 1 -10.0986 7.45186 3.65927 -4.53864
679 1 -7.34871 5.00999 4.37283 -4.3853
680 1 -7.47516 7.59449 0.891906 -4.50249
681 1 -8.52665 6.02176 2.4234 -4.45197
682 1 -8.96674 9.10183 4.90606 -4.14328
683 1 -6.38683 6.53914 5.91565 -4.45847
684 1 -5.8993 8.69624 2.15281 -4.42421
685 1 -4.77546 5.05403 1.10894 -4.46627
686 1 -5.19793 7.76466 4.17151 -4.29721
687 1 -2.62476 5.26232 4.53179 -4.46768
688 1 -2.35378 7.7379 1.28444 -4.29006
689 1 -3.69866 6.44897 2.7244 -4.51572
690 1 -4.21504 9.10052 5.95182 -4.31147
691 1 -1.53849 6.67961 6.10817 -4.58609
692 1 -1.6869 8.97926 3.15066 -4.46893
693 1 0.0259398 5.36562 1.36085 -4.41912
694 1 -0.244798 8.08229 4.7847 -4.43635
695 1 2.33397 5.5392 4.75606 -4.42921
696 1 2.44348 7.91632 1.80193 -4.51979
697 1 0.948445 6.6286 3.10192 -4.46249
698 1 0.805281 9.18287 6.67565 -4.489
699 1 3.64714 6.3836 6.60623 -4.43176
700 1 3.57235 9.02773 3.61031 -4.35011
701 1 5.02263 5.42622 1.78082 -4.49963
702 1 4.99324 7.93548 5.21019 -4.46437
703 1 7.15698 5.41788 5.26935 -4.43886
704 1 7.47422 7.84301 2.0862 -4.42251
705 1 6.06445 6.59619 3.51871 -4.43553
706 1 6.27494 8.99216 6.96707 -4.43651
707 1 8.68146 6.48009 6.83833 -4.42252
708 1 8.46044 8.84216 4.0222 -4.61204
709 1 9.5596 5.04106 2.16591 -4.38928
710 1 9.98636 7.79492 5.46023 -4.35771
711 1 12.2708 5.02088 5.2917 -4.41139
712 1 12.161 7.07914 2.66519 -4.43079
713 1 10.6608 6.07295 4.04745 -4.56434
714 1 11.8465 9.2821 8.1252 -4.52076
715 1 13.5074 6.20735 7.00968 -4.32577
716 1 13.3452 8.14922 4.35156 -4.23959
717 1 15.127 4.74856 1.79928 -4.41048
718 1 14.8464 8.1174 6.30691 -4.78387
719 1 17.8022 3.74598 4.51945 -4.23335
720 1 18.0654 7.14273 2.06091 -4.46842
721 1 15.9026 6.6246 3.0117 -4.55761
722 1 16.6167 9.33691 7.39109 -4.16041
723 1 17.842 6.25842 4.26911 -3.92881
724 1 -14.7019 10.893 3.82025 -4.34128
725 1 -14.6829 10.6636 -0.0227298 -4.74508
726 1 -14.204 12.6481 2.41266 -4.63978
727 1 -12.5395 9.94302 3.27599 -4.93938
728 1 -11.6415 12.7189 -0.105419 -4.21517
729 1 -12.7873 11.2207 1.30754 -4.55816
730 1 -12.3817 13.9061 3.21276 -4.02345
731 1 -10.6959 10.7663 4.58618 -4.4337
732 1 -10.4534 14.0552 1.72225 -5.41711
733 1 -10.0499 9.85435 0.389218 -4.46717
734 1 -9.73001 12.0148 2.82564 -4.39319
735 1 -7.35711 9.96636 3.37885 -4.56811
736 1 -7.45211 12.3602 -0.121462 -4.53263
737 1 -8.28108 10.8498 1.41826 -4.52822
738 1 -8.23431 12.8909 4.32898 -4.53213
739 1 -6.30525 11.6085 4.61427 -4.40183
740 1 -6.01358 13.9213 1.03883 -4.59049