ITEM: TIMESTEP
170000
ITEM: NUMBER OF ATOMS
4050
ITEM: BOX BOUNDS ss ss pp
-2.0729579607380170e+01 2.0941419495480620e+01
-2.0763485752834530e+01 2.0852148696015167e+01
-2.3081750000000003e+00 5.6618175000000001e+01
ITEM: ATOMS id type x y z c_peratom
1 1 -12.2646 -15.6775 -0.574451 -4.12022
2 1 -7.78178 -18.1518 -1.31019 -4.37404
3 1 -9.01495 -17.4537 1.55375 -4.51431
4 1 -7.27307 -19.0228 1.1791 -4.25131
5 1 -6.29996 -16.4891 -0.895813 -4.6292
6 1 -5.33025 -17.8949 0.656748 -4.65582
7 1 -2.80837 -17.9738 56.6936 -4.70429
8 1 -4.70608 -19.0033 -1.32697 -3.9049
9 1 -3.79989 -16.7638 2.09795 -4.49556
10 1 -0.616825 -19.4746 2.37527 -4.46224
11 1 -1.34614 -16.4435 -1.04872 -4.47287
12 1 0.242231 -19.6844 -0.717562 -4.62391
13 1 -0.556556 -17.9105 0.557851 -4.51938
14 1 3.38757 -17.7308 56.3107 -4.6461
15 1 2.48688 -19.1578 -1.05568 -3.91017
16 1 1.23582 -16.6378 1.76213 -4.59364
17 1 3.47689 -19.3331 1.09323 -4.45884
18 1 4.01808 -16.2686 -0.838303 -4.59288
19 1 5.30941 -18.0188 0.270006 -4.44665
20 1 6.95668 -18.2069 -1.52503 -4.11927
21 1 9.53864 -17.6723 1.27964 -4.34484
22 1 6.43544 -16.8249 2.04925 -4.50485
23 1 9.0338 -17.0997 -0.974188 -4.14951
24 1 11.4028 -16.4061 1.79658 -3.67042
25 1 -14.8215 -12.7556 -0.0754634 -4.06213
26 1 -15.3089 -14.5807 1.19115 -4.01564
27 1 -13.6183 -16.2607 1.35146 -4.25365
28 1 -12.5499 -13.1174 56.2272 -4.66044
29 1 -14.0296 -14.4769 -1.45099 -4.18038
30 1 -14.0762 -11.7345 1.98827 -4.59806
31 1 -11.7475 -14.7654 1.62485 -5.26309
32 1 -11.5663 -11.7001 -0.911107 -4.54778
33 1 -10.4803 -15.9273 -2.30903 -4.41933
34 1 -10.2847 -13.046 0.542111 -4.32337
35 1 -7.86721 -15.5922 0.63492 -4.59594
36 1 -7.79779 -13.1539 56.4985 -4.59611
37 1 -9.15779 -14.4905 -0.960966 -4.64742
38 1 -8.97227 -11.6127 1.92769 -4.57895
39 1 -6.56408 -14.2286 1.99253 -4.57679
40 1 -6.53533 -11.8176 -0.856115 -4.54303
41 1 -5.10871 -15.4892 56.4436 -4.39187
42 1 -5.15286 -12.8699 0.652607 -4.55355
43 1 -2.63285 -15.3629 0.629839 -4.54689
44 1 -2.65057 -12.9602 56.5736 -4.52155
45 1 -3.99409 -14.1695 -0.872766 -4.55022
46 1 -3.88777 -11.4479 2.02102 -4.57805
47 1 -1.25927 -14.1423 1.9971 -4.59591
48 1 -1.31308 -11.6604 -0.880851 -4.57123
49 1 -0.00350358 -15.4523 56.2471 -4.5216
50 1 -0.00201371 -12.7679 0.658659 -4.54593
51 1 2.56286 -15.1051 0.443637 -4.48517
52 1 2.74557 -12.8428 -2.31618 -4.57377
53 1 1.1654 -14.0826 -1.0411 -4.54474
54 1 1.27338 -11.3023 2.00934 -4.58576
55 1 3.98258 -14.0458 2.04186 -4.6007
56 1 4.0072 -11.6938 -0.75735 -4.55852
57 1 5.3941 -15.2736 56.5612 -4.46644
58 1 5.50655 -12.9004 0.615688 -4.58816
59 1 8.09231 -15.6679 0.875818 -4.91271
60 1 8.09328 -12.7922 -2.22906 -4.56001
61 1 6.84102 -14.2414 -0.854599 -4.38359
62 1 6.6839 -11.599 2.17024 -4.54118
63 1 9.21876 -14.0916 2.45427 -4.49056
64 1 9.101 -11.4771 -0.638642 -4.51386
65 1 10.5341 -15.4281 -1.98579 -4.51609
66 1 10.2233 -12.4224 1.1732 -4.48366
67 1 12.9437 -15.3694 0.369168 -4.64264
68 1 12.8444 -12.5897 -1.51192 -4.40087
69 1 11.2513 -13.9074 -0.364407 -4.68231
70 1 11.7966 -11.2822 2.49103 -4.63666
71 1 14.1298 -13.4057 1.24335 -4.0001
72 1 14.3038 -11.4323 -0.0293307 -5.39008
73 1 16.226 -12.9728 0.0972971 -4.11136
74 1 16.5762 -10.8864 0.977919 -4.03772
75 1 -18.1775 -7.66461 55.8194 -4.22831
76 1 -18.9365 -5.84383 3.0897 -3.4849
77 1 -16.6888 -8.72478 2.5174 -3.6403
78 1 -17.2383 -6.73894 -1.02482 -4.31883
79 1 -15.5634 -10.8802 -2.23929 -3.88461
80 1 -15.7059 -7.7965 0.490438 -4.53836
81 1 -12.8396 -10.389 0.53844 -4.48193
82 1 -13.2634 -7.84541 56.603 -4.54989
83 1 -14.4354 -9.3565 -0.875836 -4.6523
84 1 -14.1056 -6.72342 1.84954 -4.50972
85 1 -11.4979 -8.9704 1.95576 -4.58425
86 1 -11.7087 -6.54256 -0.967857 -4.57527
87 1 -10.4542 -10.1576 56.5624 -4.58468
88 1 -10.2388 -7.46199 0.566375 -4.5501
89 1 -7.61251 -10.2925 0.428242 -4.5364
90 1 -7.8803 -7.76993 56.599 -4.63453
91 1 -9.16192 -8.96116 -0.76991 -4.60559
92 1 -8.87533 -6.37888 2.13003 -4.59008
93 1 -6.39568 -9.15193 2.09689 -4.56447
94 1 -6.48935 -6.45841 -0.843587 -4.59579
95 1 -5.26222 -10.4471 56.7784 -4.56654
96 1 -5.09959 -7.76946 0.589443 -4.60056
97 1 -2.47781 -10.3315 0.582693 -4.56193
98 1 -2.6915 -7.60836 56.6139 -4.59294
99 1 -3.82272 -9.11609 -0.909425 -4.62168
100 1 -3.79467 -6.37754 2.02862 -4.58805
101 1 -1.27941 -8.88627 2.03424 -4.56559
102 1 -1.16452 -6.43333 -0.949672 -4.60781
103 1 -0.0498289 -10.3017 -2.20206 -4.57303
104 1 0.0348769 -7.72033 0.610685 -4.53486
105 1 2.78661 -10.1521 0.608104 -4.5723
106 1 2.73473 -7.76292 56.6977 -4.59642
107 1 1.3121 -8.99074 -0.84638 -4.58473
108 1 1.27821 -6.25708 2.02934 -4.59038
109 1 3.8154 -8.90403 2.35501 -4.55475
110 1 4.1219 -6.39026 -0.784156 -4.55766
111 1 5.24114 -10.2929 -2.25593 -4.5877
112 1 5.3143 -7.71471 0.87031 -4.54024
113 1 7.77476 -10.0969 0.771031 -4.6035
114 1 7.78551 -7.65919 -2.2926 -4.56107
115 1 6.41884 -8.94547 -0.780163 -4.51774
116 1 6.49068 -6.22234 2.21934 -4.55203
117 1 9.1547 -8.81695 2.26328 -4.56453
118 1 8.95198 -6.15512 -0.784314 -4.57632
119 1 10.2691 -9.99154 -2.05213 -4.59089
120 1 10.3263 -7.32923 0.718899 -4.58552
121 1 12.8746 -9.87619 0.955205 -4.35886
122 1 13.1923 -7.58117 56.6632 -4.48927
123 1 11.6662 -8.701 -0.6236 -4.50857
124 1 11.6043 -6.12853 2.33205 -4.56027
125 1 14.3753 -8.75315 2.27916 -4.64864
126 1 14.1996 -6.22013 -0.694592 -4.5456
127 1 15.3649 -10.3075 -1.89934 -4.284
128 1 15.6278 -7.71493 0.549579 -4.60435
129 1 18.1892 -7.78124 56.5732 -3.43012
130 1 17.0934 -9.13125 -0.585723 -4.50912
131 1 16.5374 -5.73828 1.38026 -4.27067
132 1 18.8246 -5.53605 -2.19641 -3.92708
133 1 -18.2876 -5.33518 0.8073 -4.3717
134 1 -18.2154 -2.57559 -1.96882 -4.93419
135 1 -19.5438 -3.15162 0.0943045 -4.25604
136 1 -18.5537 -1.92497 1.74849 -4.00161
137 1 -16.4419 -4.28326 1.88537 -4.49456
138 1 -16.8925 -0.984937 -0.814125 -4.46049
139 1 -15.8636 -5.26134 -2.241 -4.63262
140 1 -15.8229 -2.48186 0.656716 -4.46401
141 1 -13.0003 -5.13819 0.502245 -4.63226
142 1 -13.3352 -2.72265 -2.27824 -4.59755
143 1 -14.6102 -4.00085 -0.819306 -4.45456
144 1 -14.5656 -1.26673 2.18743 -4.53633
145 1 -11.6211 -3.77539 1.79032 -4.54616
146 1 -11.923 -1.29262 -0.943586 -4.55303
147 1 -10.4481 -5.15712 56.5485 -4.60555
148 1 -10.3596 -2.3077 0.424475 -4.53151
149 1 -7.8031 -4.97301 0.544763 -4.5649
150 1 -7.91547 -2.38348 56.5349 -4.61056
151 1 -9.26655 -3.68744 -0.949942 -4.5331
152 1 -9.06545 -1.06062 2.10212 -4.50805
153 1 -6.44204 -3.77493 2.15992 -4.56256
154 1 -6.50213 -1.28388 -0.82124 -4.55141
155 1 -5.33512 -5.06359 56.5767 -4.60848
156 1 -5.14446 -2.69057 0.584315 -4.55128
157 1 -2.49065 -5.07639 0.562548 -4.58237
158 1 -2.53367 -2.39466 56.5245 -4.56751
159 1 -3.8128 -3.83387 -0.991408 -4.58949
160 1 -3.88859 -1.18673 2.00674 -4.60144
161 1 -1.2328 -3.74676 2.00395 -4.57583
162 1 -1.26722 -1.20812 -0.756177 -4.59641
163 1 0.058363 -5.07357 56.5383 -4.61416
164 1 0.128155 -2.58025 0.640741 -4.58281
165 1 2.8065 -5.04224 0.648961 -4.58531
166 1 2.641 -2.56397 56.5493 -4.56158
167 1 1.42498 -3.88076 -0.809952 -4.56152
168 1 1.33778 -1.12062 2.03446 -4.63212
169 1 4.06327 -3.77874 2.14 -4.57445
170 1 3.8604 -1.36678 -0.820073 -4.54933
171 1 5.26598 -5.08172 56.4866 -4.52175
172 1 5.32886 -2.47105 0.664968 -4.54762
173 1 7.62621 -4.80975 0.738522 -4.50379
174 1 8.04029 -2.23834 -2.13226 -4.52119
175 1 6.40306 -3.69526 -1.03911 -4.49792
176 1 6.68618 -1.17056 2.26362 -4.50544
177 1 8.90058 -3.67971 2.39076 -4.52241
178 1 9.22468 -0.925785 -0.529968 -4.51545
179 1 10.3816 -4.91999 -2.19417 -4.57812
180 1 10.2082 -2.27794 0.969995 -4.52763
181 1 12.9646 -4.89315 0.862789 -4.58101
182 1 12.7787 -2.41974 -1.92619 -4.54597
183 1 11.4407 -3.65968 -0.376419 -4.53467
184 1 11.6185 -1.13005 2.49063 -4.53351
185 1 14.264 -3.65138 2.34649 -4.39458
186 1 14.0621 -1.10682 -0.61491 -4.53102
187 1 15.4069 -4.95076 56.6377 -4.44706
188 1 15.5877 -2.36224 0.700492 -4.52569
189 1 18.2314 -4.85691 -0.0120329 -4.71014
190 1 18.3231 -2.4051 56.397 -4.623
191 1 16.6475 -3.4804 -1.06558 -4.63453
192 1 16.9569 -1.17939 2.30789 -4.62731
193 1 19.1798 -2.81002 0.809885 -3.73737
194 1 19.2961 -1.05158 -0.782241 -4.01933
195 1 -20.2027 -1.21683 -1.23382 -4.30555
196 1 -18.826 0.314916 2.00656 -4.46682
197 1 -18.4292 2.40894 -2.02923 -4.25428
198 1 -18.7764 0.371928 -0.430417 -4.38001
199 1 -18.9562 4.44833 3.14611 -3.67168
200 1 -16.8262 1.43599 2.73263 -4.56348
201 1 -17.0868 3.56623 -0.42561 -4.43406
202 1 -15.5297 0.121976 56.5945 -4.60098
203 1 -15.4939 2.57859 0.958704 -4.48142
204 1 -13.1362 -0.120025 0.676478 -4.58608
205 1 -13.0277 2.68628 -2.27225 -4.56433
206 1 -14.2488 1.40164 -0.75542 -4.5408
207 1 -14.1857 4.21165 2.09745 -4.61773
208 1 -11.8329 1.26786 2.03059 -4.56703
209 1 -11.8209 4.15754 -0.935122 -4.60127
210 1 -10.5234 0.0131166 -2.24775 -4.61042
211 1 -10.6278 2.77879 0.588391 -4.56039
212 1 -7.99632 0.0852937 0.384362 -4.55673
213 1 -7.72482 2.72509 56.5604 -4.55925
214 1 -9.18538 1.52613 -0.979748 -4.57265
215 1 -9.21244 3.9215 2.10298 -4.57352
216 1 -6.58273 1.40735 1.90842 -4.57862
217 1 -6.52656 3.98775 -0.870204 -4.55884
218 1 -5.28143 -0.07074 56.406 -4.56053
219 1 -5.22183 2.58152 0.378859 -4.55509
220 1 -2.58131 0.207809 0.634491 -4.59164
221 1 -2.54909 2.64321 -2.38474 -4.58312
222 1 -3.93973 1.25743 -1.12502 -4.57742
223 1 -4.09727 3.788 2.08308 -4.52373
224 1 -1.13687 1.5154 2.02727 -4.5749
225 1 -1.20193 3.88008 -0.857033 -4.59595
226 1 -0.0236723 0.0174916 56.612 -4.57995
227 1 0.22669 2.61651 0.52897 -4.59335
228 1 2.7925 0.0499466 0.649146 -4.55499
229 1 2.58189 2.64187 56.573 -4.59308
230 1 1.43866 1.16833 -0.853546 -4.60511
231 1 1.50402 3.95397 2.01539 -4.59732
232 1 4.0783 1.56487 2.03484 -4.55431
233 1 3.80174 3.91625 -0.816982 -4.54804
234 1 5.31839 -0.0954334 -2.27473 -4.58573
235 1 5.27408 2.81116 0.50553 -4.52433
236 1 7.73866 0.415704 0.765029 -4.57682
237 1 7.93657 2.76658 -2.28958 -4.61225
238 1 6.4951 1.46107 -0.862202 -4.54071
239 1 6.63392 4.06684 2.0819 -4.58029
240 1 9.19061 1.43795 2.24797 -4.54712
241 1 9.20425 4.03922 -0.738963 -4.5564
242 1 10.4807 0.367832 -1.99323 -4.54852
243 1 10.5078 2.81941 0.88713 -4.60047
244 1 12.8549 0.109756 0.863773 -4.51741
245 1 13.0425 2.86473 -2.12041 -4.59338
246 1 11.879 1.58567 -0.639704 -4.52841
247 1 11.8703 4.17653 2.26731 -4.58585
248 1 14.2478 1.50111 2.1879 -4.58822
249 1 14.4049 4.28056 -0.871271 -4.45015
250 1 15.439 -0.066957 -2.16685 -4.46937
251 1 15.4296 3.06267 0.801539 -4.31266
252 1 18.173 0.0871999 0.889482 -4.5524
253 1 17.4731 2.48312 -1.7669 -4.45495
254 1 16.3488 1.09139 -0.217181 -4.45909
255 1 17.1571 4.14212 1.96521 -4.80038
256 1 19.7435 0.843018 2.66502 -4.23157
257 1 19.3656 3.73292 -2.09961 -4.24351
258 1 19.208 1.25601 56.3106 -3.78042
259 1 -18.1371 5.1336 0.964291 -3.99378
260 1 -17.9379 8.11035 55.6981 -4.59857
261 1 -18.2877 6.32318 -1.75722 -3.86426
262 1 -16.9613 6.78439 2.11589 -4.68478
263 1 -17.1807 9.07915 -1.20422 -3.71828
264 1 -16.1879 5.07562 56.7313 -5.36978
265 1 -15.8135 8.10628 0.432255 -4.57817
266 1 -13.0843 5.5973 0.549631 -4.5081
267 1 -13.2469 7.92947 -2.12595 -4.52564
268 1 -14.6761 6.52997 -0.802413 -4.31484
269 1 -14.3363 9.3337 1.97536 -4.4925
270 1 -11.7559 6.71422 2.24916 -4.54206
271 1 -11.8754 9.12706 -0.748819 -4.53009
272 1 -10.3047 5.37611 -2.23995 -4.60864
273 1 -10.5524 7.85533 0.618645 -4.55237
274 1 -7.85592 5.21359 0.594426 -4.57223
275 1 -7.87905 7.99433 -2.21547 -4.55707
276 1 -9.12109 6.67751 -0.758955 -4.55625
277 1 -8.91991 9.12486 1.92843 -4.54631
278 1 -6.58088 6.43014 2.21582 -4.59003
279 1 -6.39206 9.07166 -0.727036 -4.58156
280 1 -5.37036 5.25007 56.4424 -4.60358
281 1 -5.14749 7.60682 0.688344 -4.55319
282 1 -2.80836 5.11004 0.508849 -4.57921
283 1 -2.75949 7.73992 56.591 -4.53702
284 1 -3.98109 6.41316 -1.00694 -4.52229
285 1 -3.96513 9.23173 1.94212 -4.58661
286 1 -1.47801 6.42393 1.90922 -4.59508
287 1 -1.38701 9.12913 -0.964387 -4.6037
288 1 0.00927656 5.34948 -2.23791 -4.59343
289 1 -0.115604 7.90941 0.547172 -4.58
290 1 2.74408 5.39132 0.586584 -4.5387
291 1 2.55641 7.8203 -2.43496 -4.5951
292 1 1.33301 6.67246 -0.876415 -4.57041
293 1 1.17889 9.238 2.1684 -4.51296
294 1 3.86816 6.66338 2.07913 -4.52288
295 1 3.84134 9.22995 -1.0343 -4.57393
296 1 5.31026 5.26952 -2.12462 -4.58629
297 1 5.21419 8.02067 0.630715 -4.56432
298 1 8.03062 5.41113 0.731851 -4.58311
299 1 8.00527 7.96142 -2.15193 -4.54764
300 1 6.60802 6.76531 -0.70621 -4.59649
301 1 6.61138 9.21036 2.19392 -4.57704
302 1 9.35911 6.80422 1.96128 -4.52192
303 1 9.29 9.42647 -0.675169 -4.47825
304 1 10.526 5.26972 56.6434 -4.55619
305 1 10.7783 8.08819 0.741165 -4.34089
306 1 13.0856 5.50288 0.711745 -4.54596
307 1 12.8992 7.61385 56.1374 -4.30764
308 1 11.8194 6.6888 -0.875276 -4.49137
309 1 12.2189 9.54084 2.02054 -4.89024
310 1 14.6059 6.96347 1.94259 -4.50323
311 1 14.2547 8.88444 -1.40593 -4.43176
312 1 15.3105 5.10824 56.0834 -4.29745
313 1 16.373 8.20627 0.846399 -4.61547
314 1 18.8355 4.6699 0.191175 -4.09186
315 1 17.1229 6.35452 56.241 -4.62055
316 1 17.6349 6.57989 -0.362974 -3.67808
317 1 17.456 8.87666 2.86235 -3.6698
318 1 19.2923 5.28252 2.62215 -4.07095
319 1 -16.0076 12.9469 3.3383 -4.25829
320 1 -15.5367 10.4848 -2.13002 -4.68383
321 1 -15.6478 13.6484 1.06151 -4.14362
322 1 -12.9824 10.5994 0.612726 -4.59063
323 1 -13.3906 12.9091 -1.79267 -4.67213
324 1 -14.8013 11.8682 -0.343711 -4.4936
325 1 -13.867 13.9632 2.70775 -4.79224
326 1 -11.5883 11.7185 2.22093 -4.48373
327 1 -12.3131 14.5435 -0.495555 -4.6562
328 1 -10.746 10.5367 56.6292 -4.62507
329 1 -10.7547 12.9434 0.355228 -4.46251
330 1 -7.81683 10.5406 0.295089 -4.53624
331 1 -7.99212 13.1663 56.406 -4.56764
332 1 -9.29484 11.7769 -1.00649 -4.51388
333 1 -9.45528 14.0348 1.89305 -4.51849
334 1 -6.42496 11.6123 1.88561 -4.5829
335 1 -6.50857 14.2893 -1.07006 -4.56505
336 1 -5.44554 10.5683 56.5043 -4.54215
337 1 -5.14082 12.992 0.423427 -4.56451
338 1 -2.63767 10.4959 0.453125 -4.55139
339 1 -2.5774 12.9823 56.3881 -4.5988
340 1 -3.9031 11.6869 -1.08844 -4.60896
341 1 -4.02672 14.6059 1.91776 -4.42052
342 1 -1.39422 11.7944 2.06276 -4.54382
343 1 -1.335 14.248 -0.991518 -4.56596
344 1 -0.00299887 10.3672 56.5093 -4.55551
345 1 0.0324105 13.006 0.63573 -4.57207
346 1 2.57813 10.4634 0.500914 -4.54644
347 1 2.75274 13.0287 56.5529 -4.55144
348 1 1.29146 11.8562 -0.982466 -4.56656
349 1 1.29057 14.3369 2.17401 -4.54168
350 1 3.97081 11.7908 1.96557 -4.59228
351 1 3.84876 14.5031 -0.849436 -4.50356
352 1 5.38806 10.4549 56.5614 -4.59151
353 1 5.21392 13.348 0.72876 -4.49608
354 1 7.6052 10.5865 0.625745 -4.61233
355 1 7.8829 12.9321 -2.36454 -4.37114
356 1 6.31427 11.9916 -0.846558 -4.51483
357 1 6.51294 14.699 2.23692 -4.58695
358 1 9.07494 11.8956 1.88207 -4.38299
359 1 9.04321 14.553 -0.996685 -4.75325
360 1 10.2765 10.4675 56.2287 -4.39369
361 1 10.4393 13.1175 0.28839 -4.64021
362 1 12.7312 10.3626 -0.238799 -4.39722
363 1 12.905 12.879 55.5334 -4.26141
364 1 11.659 12.0068 -1.56918 -4.80375
365 1 11.4897 13.9835 2.19177 -4.2607
366 1 14.0377 10.9213 2.66332 -4.29747
367 1 13.6687 13.4354 -1.14213 -4.2473
368 1 15.6329 9.88174 55.9277 -4.25911
369 1 14.5563 11.6316 0.333382 -4.62629
370 1 16.1598 10.237 -0.625465 -4.3199
371 1 -14.1028 15.3815 0.770702 -4.19095
372 1 -13.0136 16.2096 2.82105 -4.1549
373 1 -10.0438 16.7742 55.9836 -4.44889
374 1 -8.33928 15.2445 0.182135 -4.55522
375 1 -8.16079 17.9403 -2.04459 -4.05766
376 1 -9.73269 16.9534 -0.54652 -4.38153
377 1 -6.83696 16.0727 1.76753 -4.67991
378 1 -8.22077 18.5069 0.403123 -4.16018
379 1 -5.28249 15.702 56.3472 -4.60771
380 1 -5.8211 17.7486 0.412174 -4.57788
381 1 -2.82315 15.6018 0.163814 -4.57885
382 1 -2.44758 18.3304 56.4637 -4.63242
383 1 -4.09787 17.0669 -1.17059 -4.46355
384 1 -4.80035 19.0663 2.10378 -3.72872
385 1 -1.50635 16.587 1.80402 -4.49958
386 1 -0.821967 19.4465 -1.18631 -3.73128
387 1 0.316564 15.3734 56.638 -4.51548
388 1 -0.163665 17.9923 0.578431 -4.72713
389 1 2.39951 15.6977 0.688321 -4.55292
390 1 2.51126 18.692 -1.70239 -4.35054
391 1 1.27581 16.9526 -0.914194 -4.56911
392 1 0.932318 19.4577 1.97919 -4.56892
393 1 3.67795 17.0302 2.04159 -4.58862
394 1 2.45602 20.0248 0.14106 -4.26814
395 1 5.18765 15.7454 56.3268 -4.493
396 1 4.6225 18.9076 0.813378 -4.10957
397 1 7.84278 16.6137 -0.450986 -4.43319
398 1 9.36357 18.0955 -1.67413 -4.15485
399 1 5.88914 17.5361 -1.34132 -4.22144
400 1 5.44379 19.6017 2.96685 -3.63346
401 1 8.25802 16.171 1.86003 -4.60117
402 1 9.91211 15.2693 55.8417 -4.27674
403 1 12.2157 14.8073 0.0563497 -4.28564
404 1 10.9221 16.2523 -1.28095 -4.21207
405 1 1.10335 20.6942 -1.74344 -4.36456
406 1 -12.7135 -16.1091 3.46566 -4.23454
407 1 -7.60162 -18.1069 3.35831 -3.53943
408 1 -9.06722 -16.4855 7.71334 -3.67301
409 1 -6.23605 -19.0136 8.75252 -4.1583
410 1 -6.37534 -16.9871 4.93646 -4.53211
411 1 -5.26887 -17.9197 6.82844 -4.54742
412 1 -2.58507 -18.4154 3.49751 -4.47635
413 1 -3.72271 -18.9248 5.55304 -3.68735
414 1 -3.8041 -16.5497 7.71465 -4.42244
415 1 -1.90165 -19.3112 7.01158 -3.95513
416 1 -1.37856 -16.7933 4.62844 -4.67678
417 1 1.31556 -20.4994 1.38246 -3.69755
418 1 -0.0821519 -18.137 5.95447 -4.66375
419 1 2.65032 -18.048 2.83883 -4.62773
420 1 0.991354 -19.1876 4.05776 -3.91955
421 1 1.19248 -16.8161 7.3881 -4.41008
422 1 4.33691 -19.3935 8.42919 -4.40587
423 1 3.79252 -17.1112 4.70418 -4.45208
424 1 5.22045 -18.3366 6.33427 -4.46179
425 1 8.06091 -18.0359 3.15666 -4.39475
426 1 7.36258 -18.5665 5.35971 -3.43615
427 1 6.14163 -16.7435 7.81226 -4.44803
428 1 9.01496 -16.8768 5.06473 -4.36611
429 1 12.6773 -15.5115 9.12189 -4.18022
430 1 -17.5441 -10.013 5.35769 -4.25234
431 1 -16.1803 -11.9222 5.28608 -4.09892
432 1 -13.6054 -14.1753 4.53795 -4.43239
433 1 -12.3367 -12.8523 3.0047 -4.38682
434 1 -15.4652 -13.3513 3.32763 -4.27556
435 1 -14.6077 -11.8017 7.28495 -4.38538
436 1 -12.3859 -14.3779 6.9317 -4.20541
437 1 -11.736 -11.4734 4.791 -4.52841
438 1 -10.2952 -16.1488 3.14235 -4.12346
439 1 -10.6564 -13.1147 6.11264 -4.63394
440 1 -7.83297 -15.5053 6.01401 -4.68746
441 1 -7.96374 -13.1233 3.44445 -4.59693
442 1 -9.38683 -14.5115 4.66287 -4.52299
443 1 -9.33141 -11.9453 7.75952 -4.52415
444 1 -6.5728 -14.1387 7.57887 -4.57406
445 1 -6.67229 -11.763 4.82101 -4.5835
446 1 -5.33467 -15.5181 3.48461 -4.61243
447 1 -5.20092 -12.7733 6.30163 -4.6107
448 1 -2.55253 -15.4289 6.18049 -4.55633
449 1 -2.57266 -12.773 3.50608 -4.62204
450 1 -3.99971 -14.0781 4.82564 -4.64504
451 1 -3.87059 -11.5527 7.8911 -4.55295
452 1 -1.34393 -13.975 7.54767 -4.56499
453 1 -1.33601 -11.4464 4.92643 -4.60145
454 1 0.110629 -15.446 3.42252 -4.61669
455 1 0.0797592 -12.7212 6.2541 -4.59513
456 1 2.68281 -15.6127 6.1531 -4.58928
457 1 2.68985 -12.6466 3.43632 -4.60873
458 1 1.44608 -14.1195 4.78328 -4.5937
459 1 1.30836 -11.4897 7.86456 -4.56172
460 1 3.78427 -14.271 7.69969 -4.48973
461 1 3.96436 -11.5012 5.0477 -4.60125
462 1 5.17204 -15.5091 3.48685 -4.5596
463 1 5.14335 -12.8736 6.47765 -4.60956
464 1 7.7253 -15.5072 6.57998 -4.52837
465 1 7.91812 -12.7562 3.87397 -4.56478
466 1 6.42623 -14.2719 5.04127 -4.61445
467 1 6.57255 -11.5983 7.9268 -4.57246
468 1 9.06882 -14.0535 7.93703 -4.49299
469 1 9.07083 -11.1539 5.09222 -4.59981
470 1 10.6356 -15.4127 3.77878 -4.51964
471 1 10.3522 -12.4999 6.58222 -4.63457
472 1 13.079 -14.6952 6.86427 -4.22895
473 1 13.3171 -12.8265 3.55008 -4.43795
474 1 11.7199 -13.797 5.16689 -4.47153
475 1 11.8803 -11.3359 7.91514 -4.35206
476 1 13.1739 -13.1528 8.77222 -5.03974
477 1 14.696 -11.6528 4.99927 -4.50882
478 1 15.0156 -13.505 6.52943 -3.86702
479 1 15.7479 -13.1058 8.77999 -4.1598
480 1 -17.9057 -7.78033 4.27792 -4.60817
481 1 -19.0814 -5.85395 8.72802 -4.03322
482 1 -17.1275 -9.52689 7.60667 -4.56442
483 1 -16.5272 -6.31038 5.34358 -4.56288
484 1 -15.5402 -10.0802 4.04766 -4.68889
485 1 -15.7076 -7.69304 7.02919 -4.61487
486 1 -13.1319 -10.2684 6.2898 -4.61426
487 1 -12.7898 -7.73222 3.48667 -4.47173
488 1 -14.2095 -8.55191 5.31682 -4.53902
489 1 -14.2852 -6.27621 8.20775 -4.54954
490 1 -11.9229 -9.0214 7.98087 -4.56557
491 1 -11.4605 -6.47716 5.0076 -4.54003
492 1 -10.2172 -10.2472 3.48585 -4.58324
493 1 -10.3616 -7.84765 6.57966 -4.55787
494 1 -7.965 -10.5218 6.41221 -4.59288
495 1 -7.69948 -7.82165 3.63439 -4.53136
496 1 -9.05993 -9.04531 5.0448 -4.5435
497 1 -9.074 -6.53775 8.1605 -4.5854
498 1 -6.44128 -9.07751 7.69206 -4.55053
499 1 -6.45197 -6.39122 5.13228 -4.58136
500 1 -5.15559 -10.3777 3.70864 -4.55817
501 1 -5.10809 -7.49557 6.61353 -4.52404
502 1 -2.64317 -10.193 6.45857 -4.56687
503 1 -2.54899 -7.62807 3.58982 -4.57642
504 1 -3.82733 -8.90165 5.03577 -4.52085
505 1 -3.72425 -6.13099 8.23403 -4.49062
506 1 -1.38154 -8.97021 7.9679 -4.55685
507 1 -1.13404 -6.27026 4.96967 -4.545
508 1 0.0161488 -10.1055 3.55688 -4.58904
509 1 -0.0702934 -7.50564 6.7023 -4.56419
510 1 2.75952 -10.0664 6.44105 -4.54689
511 1 2.58192 -7.42118 3.7205 -4.57638
512 1 1.2498 -8.69215 5.07775 -4.57625
513 1 1.40859 -6.23164 8.03382 -4.56831
514 1 3.8535 -8.89625 8.08094 -4.57029
515 1 3.96923 -6.11425 5.07934 -4.5852
516 1 5.37919 -10.1016 3.70424 -4.56048
517 1 5.18622 -7.60131 6.54054 -4.57783
518 1 7.88314 -10.0263 6.76702 -4.548
519 1 7.81939 -7.56578 3.74007 -4.57957
520 1 6.60284 -8.91517 5.24633 -4.55942
521 1 6.62802 -6.53465 8.19795 -4.6328
522 1 9.38206 -8.82365 8.0188 -4.55209
523 1 9.19719 -6.35446 5.3371 -4.59307
524 1 10.5696 -9.8538 3.85661 -4.52963
525 1 10.8377 -7.46867 6.66235 -4.56053
526 1 13.4446 -10.3002 6.42289 -4.57359
527 1 13.2177 -7.32055 3.71865 -4.55735
528 1 12.0258 -8.83238 5.22232 -4.55022
529 1 12.1216 -6.3056 8.27501 -4.59023
530 1 14.7056 -9.0928 7.92755 -4.53963
531 1 14.6512 -6.24233 5.29203 -4.40034
532 1 15.8693 -10.226 3.39596 -4.4271
533 1 16.0786 -7.629 6.67245 -4.5936
534 1 17.8105 -6.82443 3.03529 -4.4385
535 1 16.8021 -8.36872 4.5061 -3.69982
536 1 17.3209 -6.55082 8.43616 -4.13282
537 1 18.6266 -5.85697 4.95307 -3.55831
538 1 -18.1108 -5.29959 6.68231 -4.61042
539 1 -17.6262 -3.05246 3.49506 -4.44599
540 1 -19.1615 -4.25589 4.87481 -4.49161
541 1 -19.5056 -2.13063 5.84569 -4.01843
542 1 -16.8689 -3.68062 7.94338 -4.57723
543 1 -17.3427 -1.26176 5.07064 -5.37442
544 1 -15.2053 -5.48204 3.51728 -4.43607
545 1 -15.6873 -2.41899 6.32765 -4.22336
546 1 -13.081 -5.3863 6.40269 -4.55471
547 1 -13.0686 -2.68068 3.35607 -4.60745
548 1 -14.3261 -3.86745 5.00344 -4.54244
549 1 -14.3051 -1.44412 7.86722 -4.52696
550 1 -11.6748 -3.99457 7.75814 -4.57943
551 1 -11.8673 -1.24744 4.78656 -4.55076
552 1 -10.4406 -5.08424 3.35584 -4.55063
553 1 -10.426 -2.46811 6.42163 -4.56203
554 1 -7.94385 -5.2737 6.60797 -4.54997
555 1 -7.8587 -2.49517 3.52455 -4.57032
556 1 -9.07593 -3.84997 4.99089 -4.56687
557 1 -9.04348 -1.33046 7.99107 -4.55844
558 1 -6.47932 -3.85205 7.80456 -4.53179
559 1 -6.42658 -1.17638 4.92325 -4.61539
560 1 -5.14599 -5.07203 3.5698 -4.56907
561 1 -4.98828 -2.39345 6.41401 -4.53434
562 1 -2.51669 -5.1175 6.46394 -4.52963
563 1 -2.49465 -2.35184 3.41306 -4.56546
564 1 -3.7388 -3.69927 4.90696 -4.61659
565 1 -3.60771 -1.28347 7.92689 -4.5562
566 1 -1.16819 -3.85096 7.97291 -4.61149
567 1 -1.00289 -1.361 4.89885 -4.51921
568 1 0.0426848 -4.92267 3.54924 -4.52593
569 1 0.107534 -2.43266 6.64708 -4.52005
570 1 2.74202 -4.83259 6.53292 -4.52262
571 1 2.5436 -2.5505 3.44115 -4.58657
572 1 1.33041 -3.71421 5.06282 -4.53336
573 1 1.43828 -1.15254 8.11333 -4.61598
574 1 4.11633 -3.80087 8.04155 -4.53384
575 1 3.93286 -1.23998 4.99908 -4.5221
576 1 5.40502 -4.86911 3.79491 -4.52519
577 1 5.23933 -2.36334 6.65503 -4.58211
578 1 8.01486 -5.0657 6.94419 -4.60256
579 1 7.85327 -2.30974 3.97597 -4.49336
580 1 6.7436 -3.73861 5.51835 -4.56414
581 1 6.69172 -1.21523 8.12109 -4.55963
582 1 9.31792 -3.77887 8.47455 -4.63932
583 1 9.16015 -1.21195 5.46125 -4.54022
584 1 10.2547 -4.80529 3.91641 -4.55088
585 1 10.5323 -2.4021 6.97727 -4.59072
586 1 13.2767 -4.99231 6.73161 -4.57126
587 1 13.0876 -2.41138 3.91066 -4.56852
588 1 11.724 -3.69663 5.43874 -4.57407
589 1 12.0416 -1.1432 8.38461 -4.60594
590 1 14.6818 -3.78012 8.26106 -4.54578
591 1 14.5259 -1.2627 5.32874 -4.52352
592 1 15.9429 -4.97641 3.53244 -4.65733
593 1 15.9925 -2.58468 6.65461 -4.39931
594 1 17.9406 -4.87162 7.03207 -3.6644
595 1 18.7365 -2.52699 3.19291 -4.31606
596 1 17.4037 -3.67533 5.02781 -4.78998
597 1 17.2671 -1.15132 7.80597 -4.50834
598 1 19.0202 -2.35759 8.73041 -4.52477
599 1 19.6252 -0.671005 4.39172 -4.38102
600 1 -19.4227 -0.25238 4.30694 -4.03859
601 1 -17.612 0.184996 6.96419 -4.45482
602 1 -17.9617 2.71045 4.2867 -4.73374
603 1 -19.3073 1.60479 5.96425 -4.56088
604 1 -19.0029 3.49058 7.55644 -3.55963
605 1 -16.3376 1.50177 8.35554 -4.58298
606 1 -16.6587 4.44101 5.29718 -4.52817
607 1 -15.5451 -0.00711652 3.93513 -4.35421
608 1 -15.4838 2.90504 6.59819 -4.44794
609 1 -12.9541 -0.0655192 6.49655 -4.60105
610 1 -13.0143 2.77322 3.57384 -4.56297
611 1 -14.1866 1.43185 5.19077 -4.58512
612 1 -14.0733 3.91122 8.07576 -4.56254
613 1 -11.5261 1.33073 7.85367 -4.58518
614 1 -11.6753 4.14815 4.90819 -4.61592
615 1 -10.4621 0.172022 3.5302 -4.60271
616 1 -10.3646 2.78823 6.34335 -4.57172
617 1 -7.72177 -0.0031087 6.44185 -4.54853
618 1 -7.76468 2.77855 3.42268 -4.55523
619 1 -9.06969 1.44488 4.92521 -4.58982
620 1 -8.72961 3.64688 7.89435 -4.569
621 1 -6.22211 1.12781 7.77369 -4.57952
622 1 -6.52009 4.02083 5.00144 -4.59766
623 1 -5.183 0.185268 3.37367 -4.59163
624 1 -5.1274 2.57723 6.26548 -4.58731
625 1 -2.34481 0.0303636 6.31664 -4.57986
626 1 -2.52207 2.77431 3.47273 -4.6209
627 1 -3.75009 1.31501 4.84923 -4.61108
628 1 -3.88335 3.78827 7.92529 -4.57094
629 1 -1.18367 1.44339 7.83927 -4.54981
630 1 -1.15663 4.01161 4.89713 -4.56913
631 1 0.0459231 0.144832 3.49488 -4.54995
632 1 0.189001 2.55522 6.3561 -4.53236
633 1 2.66737 0.0939408 6.54137 -4.54724
634 1 2.71803 2.71089 3.67097 -4.56367
635 1 1.4866 1.22774 4.90869 -4.52917
636 1 1.52964 3.98867 7.8937 -4.52219
637 1 3.90866 1.48966 8.03106 -4.50719
638 1 4.12109 4.20139 4.88516 -4.58602
639 1 5.19204 0.195889 3.49505 -4.5905
640 1 5.2085 2.96449 6.53392 -4.57146
641 1 7.80921 0.380082 6.58766 -4.57362
642 1 7.81652 2.67279 3.64095 -4.63908
643 1 6.32605 1.51744 5.0503 -4.55907
644 1 6.73061 4.02196 7.97199 -4.50271
645 1 9.23918 1.40666 8.21086 -4.5389
646 1 9.26936 4.01651 4.94454 -4.54953
647 1 10.3448 0.0590451 3.91795 -4.54022
648 1 10.398 2.69905 6.68519 -4.53876
649 1 13.1194 0.173359 6.68168 -4.56748
650 1 13.0744 2.7449 3.83318 -4.5889
651 1 11.7175 1.42825 5.32666 -4.57707
652 1 11.8759 3.86625 8.09148 -4.56955
653 1 14.3851 1.36986 8.18654 -4.55877
654 1 14.3826 4.15055 5.11618 -4.54811
655 1 15.5696 0.174419 3.65988 -4.5973
656 1 15.444 2.79656 6.66401 -4.52891
657 1 17.921 -0.0487247 5.90459 -4.67098
658 1 18.1213 2.41972 3.15955 -4.54428
659 1 16.7612 1.7057 4.91709 -4.5873
660 1 17.016 4.06374 7.7683 -4.54824
661 1 19.3835 1.34623 7.15762 -4.3717
662 1 19.7473 3.72222 4.30055 -4.53712
663 1 20.555 1.58803 5.034 -4.0594
664 1 -18.6863 5.74876 7.63145 -4.53469
665 1 -17.9688 7.71848 4.11764 -3.55298
666 1 -18.5875 5.71887 5.14859 -4.55331
667 1 -16.4537 6.51102 7.89864 -4.66724
668 1 -16.7659 9.55211 5.18518 -4.52012
669 1 -15.6005 5.49276 3.48912 -4.61585
670 1 -15.362 8.05408 6.354 -4.59328
671 1 -12.9551 5.29802 6.51274 -4.54228
672 1 -12.9504 8.19052 3.53141 -4.55666
673 1 -14.0809 6.66676 4.92602 -4.60628
674 1 -13.9841 9.18618 7.9805 -4.63192
675 1 -11.4176 6.39185 7.89668 -4.57374
676 1 -11.5818 9.36557 5.0724 -4.52812
677 1 -10.308 5.46967 3.5853 -4.57092
678 1 -10.3336 7.97013 6.39664 -4.59353
679 1 -7.69817 5.26972 6.54907 -4.57357
680 1 -7.66316 7.9528 3.64741 -4.55006
681 1 -8.97083 6.6535 5.07653 -4.58279
682 1 -9.16861 9.21985 8.00402 -4.58868
683 1 -6.34264 6.54553 7.98802 -4.59844
684 1 -6.38148 9.20805 5.2278 -4.52251
685 1 -5.10856 5.26009 3.68352 -4.5917
686 1 -5.0333 7.90141 6.53201 -4.5944
687 1 -2.5588 5.13462 6.45948 -4.57291
688 1 -2.70009 7.85631 3.42683 -4.54185
689 1 -3.77065 6.57813 5.04251 -4.54692
690 1 -3.78083 9.17137 8.00351 -4.57173
691 1 -1.272 6.25353 8.05519 -4.58026
692 1 -1.26646 9.04937 5.04461 -4.52285
693 1 0.012954 5.29549 3.39151 -4.55114
694 1 -0.206378 7.80221 6.68182 -4.5464
695 1 2.72997 5.40914 6.3299 -4.59683
696 1 2.47476 7.78699 3.67703 -4.55757
697 1 1.04546 6.57697 5.07396 -4.5535
698 1 1.34172 9.09521 7.97248 -4.55201
699 1 4.1453 6.54585 7.86152 -4.55828
700 1 3.82377 9.23855 4.80724 -4.54204
701 1 5.35298 5.4766 3.3721 -4.577
702 1 5.22679 8.07839 6.40481 -4.58539
703 1 7.93518 5.29781 6.35788 -4.59561
704 1 8.05246 8.0586 3.58519 -4.5507
705 1 6.63014 6.65405 4.96797 -4.58002
706 1 6.60998 9.4164 7.80794 -4.53803
707 1 9.23223 6.54452 7.92546 -4.52411
708 1 9.2811 9.59617 5.06823 -4.51268
709 1 10.5485 5.55508 3.53583 -4.5916
710 1 10.4491 8.21467 6.53824 -4.28473
711 1 13.1027 5.35207 6.65197 -4.52425
712 1 13.0687 7.89113 3.5477 -4.32908
713 1 11.8007 6.75056 5.11998 -4.51824
714 1 12.2148 9.4239 8.06853 -4.83568
715 1 14.4944 6.70348 8.18968 -4.3647
716 1 14.5787 8.72318 5.08251 -4.45564
717 1 15.6524 5.35443 3.48298 -4.33839
718 1 15.6027 8.81939 7.29315 -4.68009
719 1 18.2332 4.67905 5.86131 -4.47814
720 1 18.9454 7.31814 3.74557 -4.51843
721 1 17.0228 6.52186 4.97134 -4.41794
722 1 17.3713 9.90269 8.49358 -4.17943
723 1 19.0946 6.90106 6.1737 -4.25873
724 1 -16.1262 11.3996 6.73755 -4.10774
725 1 -15.4073 10.6482 3.64186 -4.46233
726 1 -15.3884 13.4304 5.53641 -4.23308
727 1 -12.4943 10.5823 6.82096 -4.40219
728 1 -12.5225 12.7465 4.11427 -3.93926
729 1 -14.0998 11.4507 5.38601 -5.01763
730 1 -13.4858 14.543 6.65597 -4.06196
731 1 -11.0283 12.1604 7.82827 -4.53287
732 1 -11.4158 14.5468 5.36657 -5.47171
733 1 -10.1134 10.4407 3.49036 -4.58117
734 1 -9.65433 13.3941 6.44045 -4.34037
735 1 -7.77443 10.5715 6.58156 -4.59765
736 1 -7.64988 13.28 3.20694 -4.53879
737 1 -8.77049 11.892 4.81905 -4.54494
738 1 -8.32868 14.7574 7.75593 -4.55238
739 1 -6.28418 11.8705 7.86906 -4.49191
740 1 -6.15525 14.6014 4.58624 -4.5571
741 1 -5.08977 10.5582 3.53107 -4.49463
742 1 -5.16528 13.1235 6.31451 -4.35925
743 1 -2.45587 10.4223 6.49801 -4.51362