ITEM: TIMESTEP
114000
ITEM: NUMBER OF ATOMS
4050
ITEM: BOX BOUNDS ss ss pp
-2.0999928148559327e+01 2.1343565372227822e+01
-2.1492690798367690e+01 2.1038948707144989e+01
-1.5478350000000001e+00 5.5857835000000001e+01
ITEM: ATOMS id type x y z c_peratom
1 1 -12.2531 -15.7658 0.273638 -4.12569
2 1 -7.98477 -18.9059 -1.00569 -4.54916
3 1 -9.17641 -17.505 2.03967 -4.57005
4 1 -7.77611 -19.3107 1.50691 -4.2814
5 1 -6.73211 -16.9844 -0.428697 -4.66738
6 1 -5.56947 -18.2629 1.01533 -4.54658
7 1 -2.31425 -18.5244 55.5607 -4.65722
8 1 -4.32566 -19.0322 -0.779436 -3.75407
9 1 -4.05202 -17.3029 2.76443 -4.36419
10 1 -0.645652 -19.4603 3.27115 -4.34919
11 1 -1.32368 -16.9463 -0.435628 -4.56596
12 1 0.63359 -20.1158 0.252925 -4.52682
13 1 -0.302653 -18.2905 1.3002 -4.58176
14 1 3.4955 -17.6662 55.7462 -4.63454
15 1 2.55755 -18.9105 0.11408 -4.06666
16 1 1.46204 -16.9085 2.01318 -4.61116
17 1 3.58128 -19.3697 2.19018 -4.3965
18 1 4.4054 -16.2335 -0.136118 -4.67162
19 1 5.46045 -18.0352 1.04645 -4.45896
20 1 7.06983 -18.5033 -0.68245 -4.18058
21 1 10.0162 -18.1615 1.68348 -3.68819
22 1 6.78097 -16.7048 2.53736 -4.70062
23 1 8.99024 -17.0574 -0.161837 -4.50694
24 1 11.5147 -16.4826 2.14578 -3.73781
25 1 -15.198 -12.9352 0.549107 -4.08879
26 1 -15.8007 -14.414 2.39114 -4.11862
27 1 -14.2579 -15.9355 1.5381 -4.21443
28 1 -12.6832 -13.2067 55.8518 -4.49695
29 1 -14.1382 -14.7107 -0.563866 -4.43751
30 1 -14.3963 -12.3417 2.77307 -4.72784
31 1 -11.3598 -14.8334 2.277 -4.9329
32 1 -11.8532 -11.6448 -0.116395 -4.48744
33 1 -10.5903 -15.7947 -1.53251 -4.48324
34 1 -10.2818 -12.9979 1.07651 -4.45376
35 1 -7.7317 -15.7968 1.27067 -4.5823
36 1 -7.72614 -13.1125 -1.55446 -4.61677
37 1 -9.07162 -14.5553 -0.234769 -4.66819
38 1 -8.87337 -11.8706 2.64197 -4.5833
39 1 -6.4145 -14.4605 2.7753 -4.58653
40 1 -6.4194 -11.7628 -0.0637454 -4.6413
41 1 -5.09237 -15.8937 55.7386 -4.50757
42 1 -5.07977 -13.0653 1.42358 -4.55193
43 1 -2.819 -15.9664 1.18249 -4.55829
44 1 -2.48387 -13.2051 55.8114 -4.57638
45 1 -3.94711 -14.4883 -0.210509 -4.60178
46 1 -3.84713 -11.7111 2.89463 -4.63915
47 1 -1.40808 -14.5237 2.49062 -4.58749
48 1 -1.25135 -11.7474 -0.114013 -4.60655
49 1 0.334173 -15.7498 55.7819 -4.54851
50 1 0.0560988 -12.9972 1.39791 -4.57882
51 1 2.70062 -15.2286 1.08175 -4.46183
52 1 2.91202 -12.9107 55.6725 -4.51306
53 1 1.35275 -14.0943 -0.327553 -4.55961
54 1 1.54418 -11.5889 2.61434 -4.59249
55 1 3.92305 -14.2191 2.74547 -4.57571
56 1 4.04726 -11.674 0.0563659 -4.53615
57 1 5.62806 -15.1963 55.5807 -4.39634
58 1 5.47937 -12.8473 1.49099 -4.57455
59 1 8.14056 -15.3452 1.18952 -4.62068
60 1 8.10785 -12.6517 -1.52645 -4.58078
61 1 6.83139 -13.9223 -0.00958304 -4.51272
62 1 6.76 -11.4408 2.80792 -4.59335
63 1 9.10512 -14.2933 3.08271 -4.57056
64 1 9.46056 -11.473 0.101831 -4.499
65 1 10.6875 -15.7449 -1.48193 -4.39644
66 1 10.4412 -12.832 1.74083 -4.4718
67 1 12.9601 -15.4263 0.700798 -4.552
68 1 12.7597 -12.3755 -0.922887 -4.13949
69 1 11.2816 -14.0837 -0.0256696 -4.6342
70 1 11.888 -11.6645 3.05859 -4.5714
71 1 14.3128 -13.6542 1.83312 -4.0269
72 1 14.6388 -11.5424 0.450305 -5.37223
73 1 16.3628 -13.2783 0.580872 -4.11981
74 1 16.9586 -11.1459 1.54947 -4.10018
75 1 -17.6663 -7.93665 55.3088 -3.86261
76 1 -18.3595 -5.88021 3.84922 -4.15716
77 1 -16.7452 -8.83096 3.32483 -3.64167
78 1 -17.0778 -6.63568 -0.0643226 -4.43156
79 1 -15.7134 -11.0792 -1.14939 -4.29046
80 1 -15.6674 -7.96223 1.3368 -4.61282
81 1 -13.0925 -10.6018 1.69595 -4.28978
82 1 -13.1978 -7.94586 55.9342 -4.56514
83 1 -14.3813 -9.4541 -0.0638903 -4.59852
84 1 -14.3212 -6.84191 2.86347 -4.43481
85 1 -11.5085 -9.13192 2.71664 -4.52327
86 1 -11.9124 -6.42256 -0.114784 -4.60804
87 1 -10.4253 -10.5769 55.8818 -4.5396
88 1 -10.4748 -7.72136 1.2149 -4.59102
89 1 -7.72457 -10.3458 1.33907 -4.56643
90 1 -8.05329 -7.93388 55.7859 -4.61436
91 1 -9.21238 -9.31367 -0.0274053 -4.54607
92 1 -9.04934 -6.56871 2.70029 -4.56489
93 1 -6.23829 -9.111 2.73677 -4.5604
94 1 -6.66719 -6.48378 -0.36349 -4.58049
95 1 -5.22773 -10.3935 55.8213 -4.56371
96 1 -5.2029 -7.54469 1.20996 -4.49566
97 1 -2.52387 -10.4335 1.35783 -4.58418
98 1 -2.5968 -7.91854 -1.46203 -4.55771
99 1 -4.05331 -9.11494 0.0750493 -4.57279
100 1 -3.75617 -6.47547 2.67355 -4.55641
101 1 -1.32792 -9.02369 2.79328 -4.57495
102 1 -1.34353 -6.4033 -0.305789 -4.58486
103 1 0.159394 -10.4401 -1.58041 -4.58388
104 1 -0.115943 -7.80885 1.20872 -4.60772
105 1 2.87833 -10.1169 1.35427 -4.58677
106 1 2.70967 -7.68956 -1.6105 -4.60379
107 1 1.38561 -9.05973 -0.15437 -4.59696
108 1 1.16036 -6.3386 2.66295 -4.56226
109 1 4.17578 -8.78874 2.78457 -4.59586
110 1 3.93017 -6.3031 -0.142784 -4.61034
111 1 5.37029 -10.4302 55.8179 -4.56474
112 1 5.37752 -7.57786 1.15189 -4.54486
113 1 8.08983 -10.143 1.34708 -4.59067
114 1 7.93222 -7.54853 -1.60818 -4.52947
115 1 6.62079 -9.09653 -0.179939 -4.56841
116 1 6.76003 -6.40573 2.8584 -4.55404
117 1 9.3532 -8.81607 2.86167 -4.55588
118 1 9.12511 -6.38806 -0.0587055 -4.5326
119 1 10.4348 -10.0938 -1.59951 -4.56283
120 1 10.548 -7.69316 1.1918 -4.62157
121 1 13.014 -10.1755 1.60446 -4.37258
122 1 13.1126 -7.59393 55.6959 -4.59415
123 1 11.9725 -9.01344 -0.175313 -4.55776
124 1 12.0099 -6.49727 2.62814 -4.56349
125 1 14.6814 -8.97784 2.82772 -4.64439
126 1 14.4218 -6.21306 -0.302168 -4.60531
127 1 15.7857 -10.7287 -1.48591 -4.29662
128 1 15.6359 -7.74336 1.0396 -4.59206
129 1 18.2977 -7.95876 55.9988 -3.47281
130 1 16.9852 -9.30591 0.0779918 -4.57523
131 1 17.1432 -6.13241 1.85707 -4.17949
132 1 18.9961 -5.75848 55.8766 -3.81457
133 1 -18.1035 -5.12433 1.56719 -4.35365
134 1 -18.0665 -2.48696 -0.903751 -4.82117
135 1 -19.4925 -3.20028 0.887716 -4.30005
136 1 -18.4386 -1.72869 2.27054 -4.49546
137 1 -16.1009 -4.09261 2.60853 -4.36989
138 1 -17.2457 -0.596227 0.470749 -4.80168
139 1 -15.669 -5.41851 -1.41184 -4.62935
140 1 -15.4442 -2.2476 1.25571 -4.291
141 1 -13.269 -5.18847 1.35612 -4.56594
142 1 -12.9596 -2.61416 55.7629 -4.61554
143 1 -14.4258 -3.81254 -0.287146 -4.51408
144 1 -14.2317 -1.11234 2.95754 -4.5846
145 1 -11.7879 -4.07958 2.9055 -4.57459
146 1 -11.7291 -1.21328 -0.179604 -4.54016
147 1 -10.5209 -5.26309 55.7187 -4.56288
148 1 -10.5257 -2.57405 1.41037 -4.57688
149 1 -7.79995 -5.08669 1.20577 -4.5707
150 1 -7.97561 -2.73065 55.6787 -4.58224
151 1 -9.30828 -3.92533 -0.164412 -4.57362
152 1 -9.10985 -1.07802 2.58648 -4.53935
153 1 -6.49939 -3.91088 2.70745 -4.58124
154 1 -6.6324 -1.34226 -0.31008 -4.60036
155 1 -5.21125 -5.26787 55.6239 -4.58733
156 1 -5.34264 -2.48235 1.26526 -4.56987
157 1 -2.45864 -4.96588 1.26895 -4.57355
158 1 -2.62422 -2.5095 55.7735 -4.62423
159 1 -3.95694 -3.8194 -0.240278 -4.57965
160 1 -3.79858 -1.23783 2.67965 -4.57343
161 1 -1.11498 -3.58784 2.78815 -4.53053
162 1 -1.27047 -1.08147 -0.364732 -4.5783
163 1 0.0661901 -5.07376 55.8488 -4.56613
164 1 -0.0143297 -2.2488 1.2834 -4.54206
165 1 2.55332 -5.06448 1.31163 -4.5966
166 1 2.59082 -2.48681 -1.61743 -4.57052
167 1 1.21966 -3.71902 -0.130426 -4.60611
168 1 1.45231 -1.157 2.73021 -4.59454
169 1 3.91886 -3.81102 2.70319 -4.56445
170 1 3.76908 -1.14569 -0.0245679 -4.58215
171 1 5.26029 -4.98514 -1.61502 -4.57313
172 1 5.3501 -2.48024 1.25986 -4.56228
173 1 8.0258 -4.97306 1.5805 -4.55745
174 1 7.92286 -2.53514 55.9136 -4.58997
175 1 6.64078 -3.81419 -0.0808735 -4.52436
176 1 6.6507 -1.28126 2.65837 -4.51118
177 1 9.40083 -3.73282 2.95239 -4.58173
178 1 9.0424 -0.987691 -0.108962 -4.55955
179 1 10.5582 -5.2021 55.9232 -4.56997
180 1 10.3791 -2.35663 1.32466 -4.59403
181 1 13.2052 -5.02361 1.27767 -4.5965
182 1 12.9825 -2.47506 -1.48584 -4.43008
183 1 11.7582 -3.74832 0.0271859 -4.55982
184 1 11.6816 -1.15072 2.79797 -4.57623
185 1 14.6696 -3.95719 2.84338 -4.39954
186 1 14.2228 -1.21514 0.35207 -4.50379
187 1 15.6951 -4.91859 55.6869 -4.47266
188 1 15.804 -2.45117 1.59004 -4.58949
189 1 18.713 -4.86892 0.494677 -4.63679
190 1 18.3371 -2.04732 55.7996 -4.73225
191 1 16.9979 -3.48404 -0.226116 -4.66169
192 1 17.1015 -1.28644 3.18887 -4.55244
193 1 19.6536 -2.87139 1.41026 -3.4195
194 1 19.7445 -0.793608 -0.123942 -4.1222
195 1 -20.2281 -1.4656 -0.597426 -4.3693
196 1 -19.3746 0.407369 2.51671 -4.34867
197 1 -18.3069 2.34466 -1.36412 -4.37227
198 1 -19.327 0.618941 0.0504001 -4.25144
199 1 -19.2305 4.81042 3.70165 -4.08805
200 1 -17.2366 1.59462 2.84545 -4.52223
201 1 -17.0442 3.60486 0.175716 -4.34355
202 1 -15.9267 -0.0465576 -1.46999 -4.28955
203 1 -15.5581 2.66392 1.62768 -4.48005
204 1 -12.958 0.087824 1.43263 -4.58884
205 1 -13.3782 2.39861 55.8614 -4.55928
206 1 -14.5721 1.14315 0.0437817 -4.54473
207 1 -14.4062 4.36134 2.68724 -4.51487
208 1 -11.5503 1.48637 2.841 -4.54588
209 1 -11.9927 3.82763 -0.269442 -4.59115
210 1 -10.4667 0.0847296 -1.72376 -4.5917
211 1 -10.5654 2.57057 1.02346 -4.55873
212 1 -7.84017 0.162256 1.05593 -4.56469
213 1 -7.66259 2.81845 55.7612 -4.60146
214 1 -9.09934 1.41979 -0.423075 -4.61013
215 1 -9.27896 3.88664 2.42639 -4.49477
216 1 -6.5236 1.34797 2.64464 -4.5884
217 1 -6.39903 4.11071 -0.172465 -4.5811
218 1 -5.29694 0.132404 -1.56714 -4.56016
219 1 -5.09906 2.7414 1.33947 -4.60296
220 1 -2.64583 0.199012 1.15405 -4.57719
221 1 -2.51047 2.7452 -1.56538 -4.52439
222 1 -3.88251 1.50644 -0.223633 -4.5681
223 1 -3.85704 4.13383 2.70407 -4.60506
224 1 -1.49471 1.47333 2.85544 -4.55129
225 1 -1.28581 4.06945 0.108898 -4.55982
226 1 -0.00859017 0.382567 -1.7779 -4.58645
227 1 0.00441183 2.57943 1.46862 -4.58351
228 1 2.73423 0.339917 1.41926 -4.57121
229 1 2.80079 2.76597 -1.42604 -4.53933
230 1 1.28381 1.54995 -0.138707 -4.51193
231 1 1.27746 4.07865 2.7446 -4.59985
232 1 4.18144 1.55796 2.80012 -4.60423
233 1 4.02503 4.09755 0.0584548 -4.58596
234 1 5.22473 0.0187712 -1.50417 -4.54342
235 1 5.52103 3.077 1.46993 -4.49789
236 1 7.7065 0.337808 1.26511 -4.58548
237 1 7.79611 2.80909 55.7662 -4.59651
238 1 6.37447 1.66118 -0.167709 -4.57095
239 1 6.53813 4.40754 3.02782 -4.56191
240 1 9.00479 1.62591 2.7452 -4.55455
241 1 8.98173 4.13433 -0.0293072 -4.5707
242 1 10.5956 -0.029912 55.8453 -4.58004
243 1 10.4719 2.85881 1.29348 -4.62183
244 1 12.9658 0.37896 1.50835 -4.63923
245 1 13.1043 2.86026 -1.4647 -4.63742
246 1 11.8011 1.51734 -0.121952 -4.54749
247 1 11.8256 4.17103 2.68465 -4.57195
248 1 14.4452 1.65789 2.73374 -4.56639
249 1 14.3187 4.43884 -0.256104 -4.52214
250 1 15.3864 0.431196 -0.880955 -4.56305
251 1 15.5607 3.12649 1.23206 -4.33142
252 1 18.5243 0.0270426 1.6598 -4.49779
253 1 17.9763 2.11858 55.9422 -4.40965
254 1 16.9331 1.38395 0.571263 -4.55285
255 1 17.1554 4.44982 2.6471 -4.83528
256 1 19.5104 1.20424 3.4566 -4.3865
257 1 19.4397 3.80097 -0.906952 -4.18725
258 1 20.2381 1.49034 -1.71146 -3.90109
259 1 -18.4862 5.00488 1.38777 -4.06293
260 1 -18.1066 8.0095 54.9817 -4.15588
261 1 -18.5154 6.25007 -0.795499 -4.23307
262 1 -17.4561 6.57559 2.83628 -4.87524
263 1 -17.0354 9.12698 -0.673509 -3.68006
264 1 -16.3809 5.24395 -1.50506 -5.30616
265 1 -16.1276 7.93268 1.11632 -4.42143
266 1 -13.1229 5.44958 1.0795 -4.54402
267 1 -13.4734 7.97388 -1.72246 -4.55245
268 1 -14.7475 6.61495 -0.265476 -4.36993
269 1 -14.6168 9.22819 2.47913 -4.50927
270 1 -11.9558 6.68619 2.60501 -4.56327
271 1 -11.9346 9.34739 -0.349231 -4.58864
272 1 -10.5869 5.33005 55.9496 -4.5998
273 1 -10.6191 8.07213 1.08482 -4.60335
274 1 -7.9432 5.18852 1.17297 -4.54952
275 1 -8.07931 7.99137 55.6374 -4.61037
276 1 -9.17933 6.70661 -0.139515 -4.61631
277 1 -9.08987 9.2192 2.45176 -4.59934
278 1 -6.72279 6.58544 2.58807 -4.59633
279 1 -6.54115 9.10732 -0.350756 -4.58917
280 1 -5.15161 5.37893 55.7557 -4.59352
281 1 -5.31003 7.86875 1.15458 -4.57012
282 1 -2.52413 5.52294 1.3784 -4.54584
283 1 -2.72777 8.05013 -1.517 -4.58093
284 1 -3.84859 6.60607 -0.125002 -4.54288
285 1 -4.06299 9.15779 2.84534 -4.58361
286 1 -1.22595 6.77676 2.84487 -4.55475
287 1 -1.49143 9.39704 0.0825883 -4.5742
288 1 -0.0734042 5.37644 55.9307 -4.59932
289 1 -0.0436344 8.10166 1.42914 -4.60911
290 1 2.43714 5.48048 1.28081 -4.55099
291 1 2.69651 8.10569 -1.46458 -4.6014
292 1 1.2734 6.8101 -0.155802 -4.59028
293 1 1.32031 9.45922 2.86595 -4.58138
294 1 3.88536 6.77636 2.75817 -4.53581
295 1 3.98446 9.4886 -0.0845094 -4.58209
296 1 5.31528 5.48189 55.9459 -4.585
297 1 5.29693 8.12443 1.31877 -4.61771
298 1 7.8787 5.56016 1.44569 -4.59388
299 1 7.99945 8.24618 -1.55928 -4.58106
300 1 6.67866 6.84204 -0.114229 -4.59054
301 1 6.70938 9.48344 2.70531 -4.60374
302 1 9.40159 6.83866 2.77712 -4.57162
303 1 9.48866 9.47727 -0.128887 -4.53966
304 1 10.2224 5.64299 55.8586 -4.57053
305 1 10.6885 8.34611 1.48591 -4.27635
306 1 12.9479 5.70737 1.14177 -4.55414
307 1 12.8106 7.83284 55.3011 -4.26971
308 1 11.597 7.12328 -0.290443 -4.47697
309 1 12.0913 9.98962 2.79178 -4.91001
310 1 14.4158 6.9462 2.5061 -4.56023
311 1 14.2598 8.76018 -0.555773 -4.39632
312 1 15.6213 5.51731 55.5004 -4.33649
313 1 16.3748 8.17887 1.75805 -4.57392
314 1 19.0675 4.93589 1.15509 -4.13213
315 1 17.5947 6.802 55.4058 -4.64482
316 1 17.8813 6.91102 0.406455 -3.65989
317 1 17.4888 8.89211 3.77919 -4.16809
318 1 19.4288 5.40831 3.47786 -4.10165
319 1 -16.253 13.1359 3.8454 -4.21976
320 1 -15.9375 10.8704 55.6922 -4.6644
321 1 -15.6016 13.5987 1.53685 -4.15623
322 1 -13.1461 10.5402 1.24992 -4.58294
323 1 -13.3909 13.031 -1.28924 -4.67622
324 1 -14.7066 11.845 0.156725 -4.56009
325 1 -14.028 14.024 3.23824 -4.82103
326 1 -11.5496 11.6331 2.68893 -4.4952
327 1 -12.3828 14.6173 0.15254 -4.65009
328 1 -10.4685 10.7534 55.8154 -4.62559
329 1 -10.6915 13.12 0.988222 -4.4903
330 1 -7.86058 10.5821 0.93837 -4.60629
331 1 -7.81946 13.2583 55.5674 -4.5915
332 1 -9.08959 12.0989 -0.299924 -4.50595
333 1 -9.51937 14.4224 2.49858 -4.55286
334 1 -6.52591 11.9634 2.30245 -4.57586
335 1 -6.63952 14.64 -0.454851 -4.55485
336 1 -5.14616 10.5417 55.6962 -4.6151
337 1 -5.24961 13.3035 0.946321 -4.58575
338 1 -2.75167 10.6744 1.54819 -4.58264
339 1 -2.60652 13.2968 55.6976 -4.61622
340 1 -3.72925 11.8881 -0.250752 -4.56894
341 1 -4.33623 14.8141 2.55012 -4.26085
342 1 -1.60651 12.2609 2.83529 -4.55501
343 1 -1.32566 14.5811 -0.191401 -4.52728
344 1 0.0731292 10.6897 -1.28385 -4.56646
345 1 -0.0914195 13.3482 1.44667 -4.57293
346 1 2.67906 10.7232 1.3452 -4.55874
347 1 2.6748 13.2736 -1.4308 -4.545
348 1 1.34575 12.0984 0.0292251 -4.57106
349 1 1.36734 14.4869 2.97568 -4.58864
350 1 4.11434 12.0028 2.92538 -4.53601
351 1 3.99283 14.5902 -0.0533576 -4.54088
352 1 5.32019 10.7898 -1.51955 -4.55463
353 1 5.44182 13.4481 1.46312 -4.472
354 1 8.08879 10.7073 1.25168 -4.57494
355 1 7.98008 13.4559 55.8591 -4.42807
356 1 6.54333 12.1286 -0.117711 -4.51947
357 1 6.34446 15.0723 2.97497 -4.5719
358 1 9.14694 12.174 2.74381 -4.41319
359 1 9.2875 14.9016 -0.233054 -4.77673
360 1 10.5855 10.7591 55.5913 -4.41592
361 1 10.5044 13.5107 1.20915 -4.65706
362 1 12.8831 10.4376 0.518605 -4.38574
363 1 13.0485 13.0878 54.9907 -4.25403
364 1 11.8524 12.2567 -0.431257 -4.7755
365 1 11.4379 14.4315 3.22775 -4.22873
366 1 14.061 11.2727 3.31078 -4.33074
367 1 13.725 13.6359 -0.157338 -4.2875
368 1 15.5328 10.0201 55.0692 -4.01071
369 1 14.6105 11.7753 1.09758 -4.66108
370 1 16.0765 10.0494 0.192615 -4.28546
371 1 -14.1934 15.5674 1.24029 -4.19909
372 1 -13.3222 16.3156 3.37546 -4.23378
373 1 -10.022 16.5682 55.2956 -4.33395
374 1 -8.42896 15.5958 0.756615 -4.54364
375 1 -8.32463 18.29 -1.60836 -4.11487
376 1 -9.65776 17.4934 0.1838 -4.36953
377 1 -7.13199 16.4701 2.37906 -4.43388
378 1 -8.12182 19.1882 0.722376 -4.23278
379 1 -5.3741 15.9352 55.6037 -4.58543
380 1 -6.03369 17.904 1.0009 -4.60243
381 1 -2.79294 15.7613 1.09479 -4.59767
382 1 -2.60303 18.4055 55.8043 -4.65105
383 1 -4.13629 17.2168 -0.228858 -4.4851
384 1 -4.95707 19.091 2.63292 -4.1906
385 1 -1.62553 16.9162 2.8178 -4.58444
386 1 -1.05174 19.4003 -0.265159 -3.69801
387 1 0.0870423 15.5864 55.6695 -4.46205
388 1 -0.108949 18.263 1.54897 -4.70194
389 1 2.64187 15.7518 1.54088 -4.51486
390 1 2.49842 18.5315 -0.709412 -4.4556
391 1 0.989853 16.8575 0.118014 -4.55858
392 1 0.911207 19.7213 3.08507 -4.49014
393 1 3.49714 17.0199 3.36265 -4.63135
394 1 2.59892 19.8636 1.28318 -4.18518
395 1 5.07463 16.0283 55.8316 -4.47524
396 1 4.55659 18.6219 2.15271 -4.31579
397 1 7.76337 16.5691 0.406391 -4.50495
398 1 9.08705 18.2515 -0.580744 -4.27869
399 1 5.80327 17.7971 -0.221332 -4.11513
400 1 4.92439 19.6652 4.13011 -3.61055
401 1 7.94048 16.7951 2.76062 -4.49489
402 1 10.3187 15.5698 55.0674 -4.23115
403 1 12.4625 15.0949 1.13699 -4.23971
404 1 11.0312 16.5157 -0.338972 -4.16408
405 1 1.04965 20.4392 -0.6119 -4.33145
406 1 -12.8862 -16.2114 3.62809 -4.26107
407 1 -7.96434 -18.5295 3.81323 -3.51918
408 1 -9.14924 -16.7906 8.71837 -3.60718
409 1 -6.35589 -19.3564 9.17357 -4.14703
410 1 -6.78238 -17.2508 5.46264 -4.56767
411 1 -5.46868 -18.4469 7.03947 -4.28206
412 1 -2.33717 -18.1664 4.33929 -4.44338
413 1 -3.17926 -19.184 6.41626 -4.39289
414 1 -3.6186 -17.2774 7.79894 -4.33665
415 1 -1.41864 -19.5238 7.98077 -3.8713
416 1 -0.947999 -16.725 5.39367 -4.63285
417 1 1.34757 -20.6093 2.79134 -3.90841
418 1 0.173155 -18.3582 6.64355 -4.52161
419 1 2.8387 -17.7988 3.69471 -4.55786
420 1 1.28318 -19.2152 4.81209 -4.3313
421 1 1.54335 -17.2435 8.24266 -4.53634
422 1 5.03778 -19.1505 8.94591 -3.88085
423 1 4.24084 -16.8264 5.35227 -4.43939
424 1 5.67174 -17.8406 6.99473 -4.63233
425 1 8.30787 -18.1796 3.47988 -4.52202
426 1 7.54607 -18.3624 5.73138 -3.4397
427 1 6.96805 -16.5427 8.3748 -4.68216
428 1 9.30226 -16.9229 5.2633 -4.38461
429 1 13.0984 -15.74 9.58948 -4.12173
430 1 -17.6856 -10.0141 6.21973 -4.25826
431 1 -16.3829 -12.1496 6.31665 -4.19068
432 1 -13.3422 -14.5336 5.2222 -4.35211
433 1 -12.3493 -13.1002 3.7144 -4.40305
434 1 -15.2923 -13.5822 4.63631 -4.21367
435 1 -14.5041 -11.8634 7.81636 -4.54587
436 1 -12.1641 -14.4633 7.75815 -4.23604
437 1 -11.5288 -11.6431 5.37068 -4.54443
438 1 -10.4247 -16.4948 3.74593 -4.17725
439 1 -10.4221 -13.1794 6.82662 -4.62258
440 1 -8.15821 -15.9194 6.75943 -4.62511
441 1 -7.96226 -13.3859 4.15945 -4.58796
442 1 -9.55822 -14.7935 5.20724 -4.47256
443 1 -9.23057 -11.8951 8.40692 -4.54772
444 1 -6.72314 -14.7513 8.18358 -4.55801
445 1 -6.71827 -11.8838 5.52417 -4.58837
446 1 -5.27535 -15.9434 4.15887 -4.63123
447 1 -5.37429 -13.3449 6.8085 -4.62034
448 1 -2.37395 -15.6284 6.7793 -4.57194
449 1 -2.39266 -13.1681 4.1599 -4.57839
450 1 -3.86725 -14.4547 5.38079 -4.60823
451 1 -3.9446 -11.9841 8.25319 -4.60347
452 1 -1.32826 -14.3571 8.49872 -4.5963
453 1 -1.18285 -11.8117 5.61065 -4.52238
454 1 0.306151 -15.6291 3.68316 -4.44237
455 1 0.0439682 -13.0088 7.07906 -4.56702
456 1 2.83253 -15.7895 6.91508 -4.5889
457 1 2.64658 -12.8523 4.1913 -4.60375
458 1 1.30226 -14.3641 5.51641 -4.48864
459 1 1.48247 -11.8226 8.40549 -4.56737
460 1 4.01748 -14.3406 8.41014 -4.59145
461 1 4.07293 -11.3867 5.51835 -4.54097
462 1 5.49077 -15.4338 4.08918 -4.54961
463 1 5.26714 -12.8051 7.09766 -4.61773
464 1 8.33401 -15.3573 6.79613 -4.5226
465 1 7.94371 -12.7908 4.29419 -4.59481
466 1 6.60002 -14.1713 5.71139 -4.61289
467 1 6.70621 -11.5648 8.442 -4.58318
468 1 9.38251 -14.1481 8.56386 -4.45448
469 1 9.59887 -11.5622 5.50023 -4.60126
470 1 10.8027 -15.5453 4.11295 -4.53476
471 1 10.8143 -13.0143 6.89872 -4.5774
472 1 13.8055 -15.1816 7.26243 -4.20218
473 1 13.5555 -13.0505 4.08832 -4.50101
474 1 12.2949 -14.2872 5.57627 -4.4836
475 1 12.127 -11.8271 8.26885 -4.34716
476 1 13.5022 -13.5452 9.03264 -5.01675
477 1 14.9845 -11.7614 5.41515 -4.54234
478 1 15.4782 -13.6524 6.86409 -3.85854
479 1 15.9165 -13.2197 9.15655 -4.3072
480 1 -18.139 -8.02584 5.06086 -4.49616
481 1 -18.9694 -6.14575 9.50314 -3.48057
482 1 -17.0096 -9.62797 8.50412 -4.62137
483 1 -16.8059 -6.63256 6.44199 -4.44999
484 1 -15.7686 -10.362 4.85225 -4.64972
485 1 -15.4191 -8.15938 7.79595 -4.54419
486 1 -12.8601 -10.4296 7.05999 -4.58839
487 1 -12.7228 -7.9697 4.22965 -4.45387
488 1 -14.2306 -8.94424 5.93148 -4.6394
489 1 -14.0992 -6.60842 8.85382 -4.57076
490 1 -11.7985 -9.33072 8.77374 -4.52328
491 1 -11.8168 -6.49971 5.83729 -4.57131
492 1 -10.0901 -10.3811 4.04822 -4.61913
493 1 -10.5243 -7.8988 7.24974 -4.61193
494 1 -7.90767 -10.5056 7.05549 -4.63654
495 1 -7.64275 -7.84231 4.22458 -4.59995
496 1 -9.14329 -9.05323 5.71832 -4.5643
497 1 -9.01907 -6.58816 8.48883 -4.61715
498 1 -6.56226 -9.29484 8.50408 -4.58999
499 1 -6.36174 -6.54984 5.69463 -4.59188
500 1 -5.27531 -10.4652 4.33169 -4.54012
501 1 -5.15603 -7.94818 7.1003 -4.61041
502 1 -2.55936 -10.4068 7.11301 -4.57031
503 1 -2.46945 -7.54882 4.38557 -4.47926
504 1 -3.7994 -9.1759 5.61673 -4.60488
505 1 -3.78723 -6.66157 8.56032 -4.58644
506 1 -1.16482 -9.1917 8.65183 -4.61427
507 1 -1.28239 -6.37521 5.89335 -4.53307
508 1 0.151632 -10.3955 4.12446 -4.58632
509 1 0.0706843 -7.8652 7.169 -4.5827
510 1 2.69141 -10.1927 7.10727 -4.58495
511 1 2.56141 -7.60254 4.12142 -4.56666
512 1 1.2989 -9.01621 5.52945 -4.56339
513 1 1.44966 -6.50815 8.58725 -4.59452
514 1 4.09053 -8.9188 8.5856 -4.587
515 1 4.13566 -6.55891 5.68991 -4.51873
516 1 5.52935 -10.1519 4.29768 -4.5022
517 1 5.58317 -7.65777 7.20157 -4.53686
518 1 8.05125 -10.4068 6.8803 -4.60648
519 1 8.1517 -7.4626 4.28002 -4.54284
520 1 6.79956 -8.80952 5.55579 -4.5372
521 1 6.74968 -6.48117 8.81823 -4.56133
522 1 9.32374 -9.22769 8.39258 -4.59012
523 1 9.4909 -6.15137 5.76163 -4.56325
524 1 10.8962 -9.9533 4.24905 -4.56503
525 1 10.7159 -7.84559 7.03366 -4.58517
526 1 13.6749 -10.5311 6.93577 -4.59327
527 1 13.4436 -7.53737 4.23327 -4.55459
528 1 12.3316 -8.92676 5.72883 -4.57225
529 1 11.9916 -6.41322 8.37122 -4.62645
530 1 14.941 -9.38167 8.59161 -4.46305
531 1 14.9313 -6.50882 5.7652 -4.33222
532 1 16.2659 -10.5543 3.83161 -4.48772
533 1 16.0911 -7.77024 7.25994 -4.6506
534 1 17.8116 -7.15562 3.89954 -4.41088
535 1 16.9818 -8.80856 5.27669 -3.62377
536 1 17.5283 -6.67269 8.8427 -4.23915
537 1 19.1674 -5.86928 5.35796 -3.61323
538 1 -18.5198 -5.10338 7.3481 -4.54625
539 1 -17.3356 -2.72409 4.06437 -4.31301
540 1 -18.9204 -3.97657 5.21778 -4.33963
541 1 -19.6337 -1.94415 6.45517 -4.0069
542 1 -16.9791 -3.83865 8.69698 -4.60935
543 1 -17.411 -1.07233 5.7484 -5.36583
544 1 -15.8213 -5.64633 4.31809 -4.8478
545 1 -15.948 -2.52474 7.07932 -4.30293
546 1 -13.2033 -5.12328 7.17889 -4.56194
547 1 -13.2392 -2.81253 4.28837 -4.60749
548 1 -14.6641 -4.03034 5.71971 -4.41749
549 1 -14.3994 -1.22607 8.535 -4.53148
550 1 -11.7332 -3.87673 8.52814 -4.58602
551 1 -11.9462 -1.41583 5.62672 -4.56632
552 1 -10.4122 -5.45815 4.23398 -4.58769
553 1 -10.4876 -2.6066 6.9242 -4.57947
554 1 -7.85236 -5.26809 6.93117 -4.59554
555 1 -7.83073 -2.53149 4.10107 -4.60832
556 1 -9.14976 -3.95465 5.42828 -4.58455
557 1 -9.18828 -1.30039 8.31016 -4.54626
558 1 -6.41331 -4.05766 8.30298 -4.54202
559 1 -6.45148 -1.2243 5.54195 -4.6047
560 1 -5.09437 -5.13016 4.08338 -4.55756
561 1 -5.10851 -2.60109 7.04911 -4.57123
562 1 -2.86904 -5.02914 7.18269 -4.50864
563 1 -2.37461 -2.29339 4.26311 -4.58797
564 1 -3.84072 -3.74877 5.57521 -4.48749
565 1 -3.95474 -1.18928 8.52611 -4.55536
566 1 -1.50423 -4.05144 8.77624 -4.5014
567 1 -1.02365 -1.06532 5.77616 -4.54701
568 1 -0.0565005 -5.09989 4.36212 -4.55595
569 1 -0.212363 -2.82242 7.12959 -4.54614
570 1 2.6538 -5.12584 7.10106 -4.56064
571 1 2.62572 -2.49006 4.31014 -4.55284
572 1 1.34989 -3.82655 5.71994 -4.58029
573 1 1.08493 -1.27715 8.49737 -4.59659
574 1 3.78117 -3.72895 8.72116 -4.5282
575 1 3.92392 -1.13356 5.71026 -4.57211
576 1 5.26156 -5.14468 4.12847 -4.62163
577 1 5.25176 -2.6402 7.11866 -4.6017
578 1 8.0339 -5.1482 7.29829 -4.5557
579 1 7.85772 -2.46909 4.27937 -4.55613
580 1 6.70903 -3.94977 5.65387 -4.54282
581 1 6.45204 -1.30751 8.6598 -4.58466
582 1 9.32901 -3.8303 8.66271 -4.58163
583 1 9.35067 -1.19423 5.82469 -4.54583
584 1 10.8118 -5.08947 4.124 -4.55348
585 1 10.6891 -2.69761 7.09984 -4.55545
586 1 13.5738 -5.20738 7.12066 -4.57413
587 1 13.2953 -2.46582 4.13661 -4.56497
588 1 12.1503 -3.87303 5.68922 -4.60655
589 1 11.9811 -1.36186 8.55297 -4.62189
590 1 14.9241 -3.80313 8.5842 -4.54818
591 1 14.4578 -1.20681 5.80083 -4.53597
592 1 16.3755 -5.37231 3.98809 -4.70975
593 1 16.096 -2.64624 6.84694 -4.34421
594 1 18.2568 -5.00773 7.35129 -3.55541
595 1 18.9056 -2.63296 3.71212 -4.26522
596 1 17.692 -3.93998 5.32505 -4.889
597 1 17.1029 -1.20151 8.37813 -4.50153
598 1 19.126 -2.01237 9.10523 -4.55057
599 1 19.5694 -0.516454 5.02559 -4.31551
600 1 -19.4985 -0.153277 4.82573 -4.0112
601 1 -17.8171 0.432544 7.54954 -4.46004
602 1 -18.0667 2.88796 4.60649 -4.5377
603 1 -19.271 1.80499 6.36094 -4.48617
604 1 -18.7213 3.78176 7.80155 -4.21957
605 1 -16.3407 1.79176 8.67162 -4.60223
606 1 -17.1538 4.4503 6.09498 -4.96875
607 1 -15.8895 0.190832 4.16234 -4.33315
608 1 -15.4588 3.08369 7.0027 -4.37772
609 1 -13.2101 0.180865 7.00096 -4.5507
610 1 -13.085 2.92797 3.98012 -4.61555
611 1 -14.3265 1.61433 5.49028 -4.5273
612 1 -14.2693 4.26296 8.48774 -4.52123
613 1 -11.7636 1.23737 8.573 -4.59925
614 1 -11.7593 4.1 5.54013 -4.59694
615 1 -10.6235 -0.253062 4.07738 -4.51613
616 1 -10.5354 2.67443 7.06512 -4.53166
617 1 -7.94926 0.144859 6.90011 -4.58408
618 1 -7.88935 2.60454 4.09421 -4.56478
619 1 -9.32354 1.32107 5.34494 -4.55392
620 1 -9.29826 4.14143 8.53722 -4.52036
621 1 -6.70339 1.28938 8.47173 -4.49497
622 1 -6.49784 3.9374 5.48089 -4.5765
623 1 -5.18526 0.0691242 4.03897 -4.62286
624 1 -5.38441 2.50044 6.98011 -4.599
625 1 -2.65764 0.0487852 7.07665 -4.51765
626 1 -2.74742 2.76984 4.27072 -4.54968
627 1 -3.88163 1.26636 5.63752 -4.55756
628 1 -4.02915 3.88538 8.25702 -4.56843
629 1 -1.49937 1.36914 8.59712 -4.62422
630 1 -1.29484 4.04744 5.79171 -4.59159
631 1 0.0696397 0.12926 4.15454 -4.57445
632 1 0.022216 2.64712 7.25181 -4.59106
633 1 2.57691 0.0122175 7.19945 -4.5245
634 1 2.55345 2.69328 4.14707 -4.57023
635 1 1.29772 1.48013 5.61471 -4.51455
636 1 1.19605 4.11467 8.63864 -4.57117
637 1 3.74489 1.42072 8.60215 -4.5853
638 1 4.10305 4.01335 5.52348 -4.47647
639 1 5.3817 0.00745582 4.23142 -4.58156
640 1 5.1132 2.66171 7.19245 -4.56842
641 1 7.7998 0.00873918 7.2625 -4.5831
642 1 7.91083 2.92287 4.3494 -4.59598
643 1 6.58077 1.49934 5.7162 -4.58579
644 1 6.49928 3.90173 8.65873 -4.57968
645 1 9.12379 1.33251 8.60092 -4.60556
646 1 9.17211 4.23756 5.87027 -4.5835
647 1 10.3383 0.207614 4.23139 -4.57708
648 1 10.4434 2.75919 7.31212 -4.60208
649 1 13.0261 0.24153 7.32929 -4.47352
650 1 13.0556 2.85542 4.16911 -4.61501
651 1 11.6487 1.58027 5.6868 -4.50211
652 1 11.882 4.11962 8.5593 -4.5597
653 1 14.3296 1.45005 8.92454 -4.54789
654 1 14.3888 4.23784 5.5461 -4.44469
655 1 15.5526 0.17178 4.24886 -4.53357
656 1 15.1098 2.95498 7.36716 -4.47331
657 1 17.7933 0.165503 6.5459 -4.69041
658 1 17.8577 2.66357 4.07736 -4.58879
659 1 16.4095 1.82441 5.74843 -4.55218
660 1 16.7946 4.19641 8.4595 -4.62722
661 1 19.3099 1.57779 7.66299 -4.5611
662 1 19.3871 3.81464 5.34414 -4.50854
663 1 20.5936 1.60876 5.6853 -4.14076
664 1 -19.1707 6.01325 8.15006 -4.38357
665 1 -18.0459 8.08222 4.67434 -3.41679
666 1 -18.7908 6.12362 5.70758 -4.29972
667 1 -16.9999 6.85589 8.52955 -4.69815
668 1 -16.9451 10.0257 5.6714 -4.58788
669 1 -15.8997 5.34472 4.16408 -4.27493
670 1 -15.8648 8.23275 6.89883 -4.55617
671 1 -13.0847 5.5589 6.98463 -4.51879
672 1 -13.2803 8.00615 3.92027 -4.52159
673 1 -14.5528 6.68797 5.54658 -4.5709
674 1 -14.4108 9.28282 8.42313 -4.63339
675 1 -11.8211 6.58976 8.58598 -4.54463
676 1 -11.7633 9.08811 5.48273 -4.53519
677 1 -10.496 5.2565 3.88113 -4.56929
678 1 -10.4826 7.93547 7.09964 -4.57028
679 1 -8.11737 5.08229 6.77969 -4.55031
680 1 -7.8384 8.00956 4.04592 -4.55504
681 1 -9.33374 6.69565 5.4518 -4.57368
682 1 -9.06953 9.41304 8.34323 -4.56286
683 1 -6.88511 6.41864 8.33845 -4.5552
684 1 -6.73847 9.40936 5.51524 -4.57036
685 1 -5.32327 5.43211 4.01211 -4.58257
686 1 -5.67939 7.99521 6.94418 -4.5556
687 1 -2.8352 5.4168 6.87924 -4.60305
688 1 -2.61611 8.01146 4.25099 -4.60903
689 1 -4.17314 6.73223 5.46938 -4.56756
690 1 -4.41517 9.31613 8.40736 -4.55351
691 1 -1.69525 6.70633 8.47422 -4.606
692 1 -1.33665 9.35233 5.82322 -4.51139
693 1 0.0630529 5.31366 4.35765 -4.59033
694 1 -0.13119 7.90751 7.16865 -4.5908
695 1 2.66251 5.24045 6.95902 -4.57611
696 1 2.61783 8.13322 4.28443 -4.60571
697 1 1.39341 6.72126 5.65988 -4.5944
698 1 1.04136 9.27484 8.71942 -4.62755
699 1 3.76834 6.83729 8.41907 -4.57098
700 1 3.96417 9.47183 5.64984 -4.54988
701 1 5.04235 5.62739 4.32 -4.4724
702 1 5.21034 8.14715 7.19897 -4.59572
703 1 7.56757 5.49563 7.13458 -4.56705
704 1 8.02425 8.17116 4.11235 -4.58601
705 1 6.42918 6.97695 5.6048 -4.52201
706 1 6.56543 9.35272 8.74488 -4.58015
707 1 9.23882 6.57933 8.40682 -4.57826
708 1 9.35965 9.46844 5.55343 -4.54823
709 1 10.4532 5.39044 4.1772 -4.56809
710 1 10.5634 8.17582 7.17136 -4.42291
711 1 12.9927 5.46637 6.99382 -4.53974
712 1 12.8305 8.06986 3.8878 -4.39251
713 1 11.7495 6.85366 5.57162 -4.55616
714 1 11.9652 9.45387 8.72147 -4.61292
715 1 14.2805 6.63516 8.58015 -4.37872
716 1 14.2483 9.03185 5.49734 -4.4531
717 1 15.483 5.45751 4.00259 -4.13851
718 1 15.7368 8.23822 7.25514 -4.8144
719 1 17.6206 4.9449 6.38311 -4.2441
720 1 19.084 7.34151 4.69832 -4.1444
721 1 16.7919 7.01519 5.45063 -5.17006
722 1 17.4223 9.8334 9.10693 -3.85554
723 1 18.877 6.65573 6.9734 -4.17883
724 1 -16.6789 11.7061 7.3335 -3.54081
725 1 -15.5896 10.9295 3.93747 -4.59533
726 1 -15.4318 13.234 6.20243 -4.60211
727 1 -12.7295 10.4702 7.10244 -4.51481
728 1 -12.3413 12.9098 4.4526 -4.16942
729 1 -13.954 11.6428 5.43945 -4.70812
730 1 -13.9838 14.7469 7.24116 -4.07634
731 1 -11.4769 12.01 8.14321 -4.4761
732 1 -11.7161 14.6665 5.94908 -5.30492
733 1 -10.2362 10.4471 4.16908 -4.55503
734 1 -9.95594 13.3591 6.88076 -4.33762
735 1 -8.04369 10.8384 6.85855 -4.53944
736 1 -7.70297 13.5276 3.67191 -4.52395
737 1 -8.84606 12.1851 5.15468 -4.45282
738 1 -9.10405 14.9084 8.39937 -4.54777
739 1 -6.55254 12.2386 8.14792 -4.54752
740 1 -6.59561 14.9625 5.11825 -4.30797
741 1 -5.43862 10.6545 4.02108 -4.5911
742 1 -5.32039 13.57 6.56055 -4.49848
743 1 -2.89731 10.4521 7.05938 -4.54281
744 1 -3.07849 13.4546 4.1713 -4.54757
745 1 -4.10045 11.8341 5.5327 -4.5753