ITEM: TIMESTEP
28000
ITEM: NUMBER OF ATOMS
4050
ITEM: BOX BOUNDS ss ss pp
-2.1419308838709803e+01 2.1318324598486932e+01
-2.1708048095069341e+01 2.1660971694931707e+01
-3.8017000000000012e-01 5.4690170000000002e+01
ITEM: ATOMS id type x y z c_peratom
1 1 -12.9144 -15.861 1.35694 -4.18681
2 1 -8.48454 -19.2027 0.370415 -4.17415
3 1 -9.41323 -17.6545 3.09794 -4.52338
4 1 -7.91411 -19.5678 2.73292 -4.36966
5 1 -6.62757 -17.64 0.598786 -5.30271
6 1 -5.72059 -18.8313 2.50023 -4.28078
7 1 -2.96446 -18.7422 54.7679 -4.64012
8 1 -4.88015 -19.8321 0.588209 -4.12243
9 1 -4.1007 -17.7657 3.86652 -4.41079
10 1 -1.00161 -20.1226 4.09104 -4.31336
11 1 -1.75243 -17.2016 0.906232 -4.4659
12 1 0.259874 -20.6015 1.13488 -4.64092
13 1 -0.755063 -18.7568 2.22403 -4.57549
14 1 3.46222 -18.4484 54.4617 -4.59607
15 1 2.13914 -19.3558 0.990053 -3.84165
16 1 0.80649 -17.3177 3.27639 -4.59053
17 1 3.13686 -19.9558 2.95736 -4.58962
18 1 4.06717 -16.9049 1.05914 -4.63182
19 1 5.11925 -18.8384 2.07434 -4.37948
20 1 7.83463 -18.54 0.439186 -3.92339
21 1 9.55327 -18.9704 2.17916 -3.92682
22 1 6.46285 -17.4011 3.31316 -4.49062
23 1 9.63296 -16.9407 1.01348 -4.83377
24 1 11.4233 -17.2131 2.61658 -4.12477
25 1 -15.8733 -12.9372 1.47052 -4.14781
26 1 -15.858 -14.4226 3.45233 -4.12003
27 1 -14.1943 -16.1864 3.31679 -4.17402
28 1 -12.9025 -12.9889 54.2936 -4.53722
29 1 -14.4774 -14.4529 0.416602 -3.90821
30 1 -14.8303 -12.2749 3.58907 -4.64108
31 1 -12.2947 -14.769 3.45598 -5.2074
32 1 -11.9409 -11.9603 1.08556 -4.54714
33 1 -11.0423 -16.1413 -0.0832917 -4.37704
34 1 -10.6856 -13.3551 2.42331 -4.33962
35 1 -7.85906 -16.0607 2.11038 -4.34846
36 1 -8.02429 -13.3229 -0.282942 -4.58959
37 1 -9.40694 -14.7222 0.958944 -4.644
38 1 -9.46019 -12.0884 3.89852 -4.53798
39 1 -6.68317 -14.9243 3.75456 -4.56326
40 1 -6.72979 -12.1184 1.20294 -4.61175
41 1 -5.43339 -15.8659 54.6152 -4.36499
42 1 -5.36402 -13.5424 2.45506 -4.65312
43 1 -2.8318 -16.2485 2.68483 -4.49745
44 1 -2.68592 -13.5057 -0.185716 -4.57968
45 1 -4.00195 -14.9164 1.1153 -4.59124
46 1 -4.10858 -12.2579 4.00342 -4.62146
47 1 -1.47459 -14.7918 3.87898 -4.53562
48 1 -1.56343 -11.9984 1.0959 -4.59898
49 1 0.111739 -16.3516 54.7644 -4.47929
50 1 -0.139214 -13.288 2.51309 -4.57753
51 1 2.27198 -15.7782 2.20593 -4.55751
52 1 2.54122 -13.5085 54.45 -4.58106
53 1 0.900158 -14.4965 0.807031 -4.58036
54 1 1.4492 -11.982 3.59605 -4.56552
55 1 3.61826 -14.6516 3.78256 -4.60262
56 1 3.74645 -12.1283 0.743087 -4.603
57 1 5.49314 -15.8471 54.6234 -4.60493
58 1 5.03616 -13.2983 2.43085 -4.53325
59 1 7.80041 -15.7999 2.08593 -4.50495
60 1 8.19356 -13.1478 54.4328 -4.50649
61 1 6.61005 -14.1564 0.859117 -4.60055
62 1 6.49741 -11.7988 3.51929 -4.59244
63 1 9.16625 -14.6587 3.78471 -4.62273
64 1 9.09037 -11.7506 1.06035 -4.59559
65 1 10.8451 -16.097 54.2333 -4.37152
66 1 10.4061 -13.2056 2.45657 -4.59187
67 1 12.9463 -15.6723 1.58898 -4.46784
68 1 13.1638 -12.6805 -0.2444 -4.18423
69 1 11.4858 -14.149 0.532768 -4.6748
70 1 11.8427 -11.811 3.79065 -4.6451
71 1 14.2666 -13.9776 2.60603 -4.03106
72 1 14.6444 -11.8137 1.39416 -5.3994
73 1 16.3952 -13.5167 1.62501 -4.1285
74 1 16.7775 -11.5581 2.83014 -4.03752
75 1 -18.2754 -8.02102 54.3273 -3.70222
76 1 -19.7351 -5.62895 4.84396 -3.69244
77 1 -17.4463 -9.21418 4.02577 -3.77254
78 1 -17.6151 -6.6238 1.11433 -4.53499
79 1 -15.995 -11.1004 -0.128456 -4.30338
80 1 -16.1777 -8.1028 2.47832 -4.66132
81 1 -13.488 -10.8248 2.34367 -4.43303
82 1 -13.3445 -8.04781 55.0985 -4.57702
83 1 -14.8512 -9.48704 1.08958 -4.59478
84 1 -14.8594 -6.62308 3.81875 -4.60162
85 1 -12.2633 -9.31726 3.75706 -4.5799
86 1 -11.9634 -6.56007 1.21865 -4.60724
87 1 -10.6874 -10.6632 -0.387104 -4.6331
88 1 -10.7197 -8.07983 2.48641 -4.62162
89 1 -8.18572 -10.6289 2.35093 -4.56365
90 1 -7.85861 -7.91245 -0.277053 -4.59087
91 1 -9.31607 -9.25882 0.922623 -4.59988
92 1 -9.3026 -6.78052 3.82694 -4.59871
93 1 -6.83146 -9.49932 3.86979 -4.60996
94 1 -6.72358 -6.61907 1.32702 -4.59982
95 1 -5.33314 -10.6911 -0.130675 -4.59628
96 1 -5.43895 -7.90404 2.77391 -4.59745
97 1 -2.86448 -10.7427 2.62696 -4.62593
98 1 -2.68052 -8.16944 -0.0985364 -4.56849
99 1 -4.17834 -9.28541 1.31007 -4.59774
100 1 -3.93911 -6.53436 3.92138 -4.58146
101 1 -1.34522 -9.45247 3.7861 -4.58193
102 1 -1.23355 -6.76848 1.05114 -4.57495
103 1 -0.0553292 -10.8264 54.7122 -4.56254
104 1 0.0511204 -8.15305 2.30949 -4.55364
105 1 2.59875 -10.5775 2.03515 -4.56422
106 1 2.82127 -7.82172 -0.389767 -4.58584
107 1 1.29759 -9.20253 0.748241 -4.55329
108 1 1.20756 -6.53876 3.57699 -4.59575
109 1 3.83977 -9.31282 3.52844 -4.59793
110 1 3.96899 -6.30282 0.910924 -4.56014
111 1 5.15794 -10.6554 -0.529624 -4.58425
112 1 5.22254 -7.81948 2.30269 -4.64015
113 1 7.82616 -10.2709 2.45892 -4.50565
114 1 7.86788 -7.98851 -0.166076 -4.57365
115 1 6.39195 -9.30858 0.959737 -4.55639
116 1 6.67992 -6.48382 3.54782 -4.59104
117 1 9.3442 -9.16077 3.83154 -4.59356
118 1 9.47355 -6.7365 0.976805 -4.60599
119 1 10.6197 -10.5679 54.8493 -4.53026
120 1 10.8464 -7.85896 2.51191 -4.59526
121 1 13.1468 -10.2726 2.60667 -4.34996
122 1 13.6553 -8.09647 54.7124 -4.57782
123 1 12.0063 -9.18676 1.03659 -4.52049
124 1 12.2418 -6.48639 3.86849 -4.58583
125 1 14.864 -9.13697 3.86236 -4.62231
126 1 14.8718 -6.61016 1.04997 -4.5999
127 1 16.0712 -10.9956 -0.375152 -4.31505
128 1 16.1797 -8.03746 2.34833 -4.5964
129 1 18.7254 -8.45688 54.791 -3.5097
130 1 17.4689 -9.72655 1.24396 -4.50663
131 1 17.5894 -6.54291 3.44964 -4.54732
132 1 19.5752 -6.32207 0.132608 -3.51929
133 1 -18.8636 -5.2753 2.71559 -4.58735
134 1 -18.4114 -2.63597 -0.274798 -5.13547
135 1 -19.912 -3.94179 1.02223 -3.47674
136 1 -20.1404 -1.38422 4.70271 -4.28327
137 1 -17.4324 -3.76377 3.68997 -4.5736
138 1 -17.4619 -1.1486 1.33391 -4.44719
139 1 -16.3114 -5.24763 -0.34056 -4.55607
140 1 -15.8879 -2.44172 2.36102 -4.47412
141 1 -13.4901 -5.14795 2.43021 -4.57086
142 1 -13.376 -2.53287 54.6392 -4.57797
143 1 -14.728 -3.90245 0.865252 -4.58569
144 1 -14.6056 -1.39171 3.91436 -4.4619
145 1 -12.1413 -3.89491 3.71334 -4.55375
146 1 -12.0123 -1.10689 0.894603 -4.62656
147 1 -10.6029 -5.24624 -0.298737 -4.59989
148 1 -10.7749 -2.45795 2.39418 -4.62928
149 1 -8.18762 -5.1938 2.55523 -4.58899
150 1 -8.08145 -2.4525 -0.454736 -4.58936
151 1 -9.33416 -3.74121 0.976287 -4.57093
152 1 -9.41102 -1.04134 3.74176 -4.61388
153 1 -6.73541 -3.95014 3.83162 -4.59712
154 1 -6.58427 -1.24234 0.797386 -4.59546
155 1 -5.523 -5.33983 -0.20389 -4.59247
156 1 -5.27704 -2.60369 2.344 -4.53286
157 1 -2.60173 -5.48423 2.36274 -4.55123
158 1 -2.62446 -2.8898 -0.321152 -4.55808
159 1 -4.00993 -4.10119 1.079 -4.64768
160 1 -4.06783 -1.23036 3.71911 -4.60112
161 1 -1.34256 -3.86661 3.70984 -4.60815
162 1 -1.5037 -1.33374 0.984048 -4.58568
163 1 0.0838088 -5.49309 -0.313687 -4.5804
164 1 -0.0447245 -2.51439 2.35541 -4.61963
165 1 2.66005 -5.08378 2.45334 -4.58698
166 1 2.68512 -2.54524 54.8681 -4.60021
167 1 1.26515 -3.9614 1.0471 -4.62299
168 1 1.41976 -1.16503 3.81541 -4.59949
169 1 3.96481 -3.74467 3.81429 -4.57009
170 1 4.10466 -1.21897 1.17989 -4.60993
171 1 5.38345 -5.2609 -0.548695 -4.52552
172 1 5.46966 -2.6882 2.33349 -4.5918
173 1 8.12358 -5.24253 2.18978 -4.6183
174 1 8.09909 -2.55404 54.5963 -4.57698
175 1 6.71829 -4.0284 0.761193 -4.58145
176 1 6.71924 -1.22044 3.66008 -4.64495
177 1 9.32774 -3.82926 3.63822 -4.60035
178 1 9.41935 -1.23213 0.985858 -4.59494
179 1 10.8662 -5.47784 54.699 -4.5762
180 1 10.8187 -2.695 2.27755 -4.62946
181 1 13.6516 -5.12428 2.42868 -4.6069
182 1 13.4768 -2.51038 54.5813 -4.56903
183 1 12.1882 -4.05236 0.937883 -4.60062
184 1 12.0293 -1.09773 3.59792 -4.57365
185 1 14.9609 -3.65866 3.70667 -4.59448
186 1 14.7014 -1.31298 1.0738 -4.55892
187 1 16.1866 -5.38344 -0.513497 -4.48301
188 1 16.2644 -2.50311 2.15644 -4.52084
189 1 19.1041 -4.99693 2.08196 -4.57568
190 1 18.9952 -2.5195 54.5774 -4.70059
191 1 17.5258 -3.93495 0.700254 -4.65177
192 1 17.3005 -1.22745 3.77637 -4.60707
193 1 19.9055 -2.71577 2.63674 -3.59528
194 1 20.0275 -1.05062 1.07411 -4.23092
195 1 -20.5679 -1.69407 0.4502 -4.47629
196 1 -19.5191 0.558437 3.57886 -4.04486
197 1 -18.9494 2.39458 -0.228648 -4.12474
198 1 -19.399 0.197407 1.28104 -4.34822
199 1 -19.7489 4.7457 4.42041 -3.58922
200 1 -17.311 1.47817 4.09314 -4.53545
201 1 -17.7387 3.75058 1.48945 -4.34897
202 1 -16.2165 0.0559645 54.8206 -4.61913
203 1 -15.9313 2.74951 2.60363 -4.56219
204 1 -13.3005 0.155967 2.44429 -4.57538
205 1 -13.5747 2.85756 -0.417865 -4.60534
206 1 -14.7585 1.37616 1.0585 -4.6059
207 1 -14.7598 4.22294 4.00533 -4.55994
208 1 -11.9868 1.53907 3.73495 -4.57418
209 1 -12.3082 4.30171 1.08515 -4.56448
210 1 -10.7571 0.308047 -0.428928 -4.58379
211 1 -10.8024 2.92474 2.25454 -4.5871
212 1 -7.93946 0.114532 2.22971 -4.59928
213 1 -8.1463 2.85009 54.6612 -4.61872
214 1 -9.40388 1.51643 1.03516 -4.59736
215 1 -9.61918 4.36264 3.78825 -4.61328
216 1 -6.68574 1.52962 3.62498 -4.60229
217 1 -6.7782 4.16279 1.07477 -4.59656
218 1 -5.27516 0.14301 -0.47591 -4.58962
219 1 -5.33702 2.8823 2.35712 -4.59869
220 1 -2.59154 0.180786 2.52871 -4.59324
221 1 -2.5926 2.54507 -0.467074 -4.61469
222 1 -4.048 1.39313 1.08033 -4.6082
223 1 -3.94233 4.27088 3.70363 -4.5542
224 1 -1.19666 1.5664 3.76067 -4.57882
225 1 -1.36153 4.10351 0.851207 -4.57914
226 1 -0.0831223 -0.045666 -0.352077 -4.58217
227 1 0.0205979 2.9267 2.30949 -4.60463
228 1 2.7072 0.22892 2.34519 -4.57397
229 1 2.62872 2.69644 -0.367339 -4.57698
230 1 1.19223 1.44565 0.849885 -4.56828
231 1 1.54879 4.0437 3.79561 -4.54959
232 1 3.94301 1.61582 3.65113 -4.5137
233 1 4.00801 4.18475 0.960226 -4.61417
234 1 5.41176 -0.110778 -0.357648 -4.58859
235 1 5.47003 2.69049 2.22993 -4.57779
236 1 8.15468 0.13813 2.3424 -4.59752
237 1 8.16886 2.76082 -0.50165 -4.60852
238 1 6.81381 1.44805 0.809051 -4.59504
239 1 6.70691 4.19808 3.56141 -4.5783
240 1 9.20287 1.55509 3.8178 -4.5391
241 1 9.42634 4.18505 0.827261 -4.56356
242 1 10.7618 0.165447 54.8045 -4.6052
243 1 10.6145 2.93184 2.37215 -4.62115
244 1 13.3061 0.130709 2.22327 -4.5657
245 1 13.4917 2.90247 54.6443 -4.63512
246 1 12.0094 1.66368 0.944038 -4.59055
247 1 12.1497 4.20846 3.61146 -4.61015
248 1 14.5005 1.42109 3.79022 -4.60261
249 1 14.8708 4.39118 0.829324 -4.54844
250 1 15.8789 0.0592665 -0.375983 -4.6233
251 1 15.7408 2.85715 2.38041 -4.44089
252 1 18.6196 0.143797 2.58552 -4.55921
253 1 18.3366 2.32407 54.5445 -4.36574
254 1 17.0845 1.29509 1.16084 -4.54939
255 1 17.3957 4.02339 3.68787 -4.88467
256 1 20.0968 1.02754 4.19942 -4.36601
257 1 20.302 3.63841 -0.0201684 -4.32328
258 1 20.3914 1.23388 54.4497 -3.85223
259 1 -18.9954 5.55444 2.44459 -4.40715
260 1 -18.2894 8.27229 54.1246 -4.61239
261 1 -19.0411 6.32455 0.106 -4.24826
262 1 -17.6158 6.89943 3.7755 -4.63959
263 1 -16.7942 9.20959 0.595579 -3.6072
264 1 -16.8173 5.37565 -0.0791772 -5.35616
265 1 -15.9983 8.21451 2.56594 -4.63345
266 1 -13.6229 5.53296 2.55315 -4.56432
267 1 -13.5616 8.22946 -0.101252 -4.51466
268 1 -15.0069 6.70948 1.08099 -4.29718
269 1 -14.6525 9.80671 3.68445 -4.52998
270 1 -12.1555 6.93702 3.91152 -4.58923
271 1 -11.9884 9.46733 1.01847 -4.56699
272 1 -11.0018 5.534 -0.309915 -4.59077
273 1 -10.7618 8.08335 2.42342 -4.56931
274 1 -8.149 5.5894 2.42636 -4.5995
275 1 -7.98436 8.16164 -0.438042 -4.56912
276 1 -9.43657 6.83367 1.02262 -4.55915
277 1 -9.37133 9.43954 3.56376 -4.60073
278 1 -6.67911 6.71401 3.82485 -4.59773
279 1 -6.67166 9.57815 0.982186 -4.60089
280 1 -5.26183 5.41511 54.8136 -4.62913
281 1 -5.34055 8.11093 2.51101 -4.54007
282 1 -2.65464 5.58318 2.17811 -4.58489
283 1 -2.51473 8.04487 -0.558852 -4.56749
284 1 -3.92294 6.96372 0.952254 -4.57867
285 1 -3.82335 9.5195 3.79715 -4.63548
286 1 -1.31052 6.83342 3.64955 -4.60062
287 1 -1.17987 9.34727 0.796431 -4.59301
288 1 0.201075 5.40794 54.8296 -4.60623
289 1 0.143296 8.18926 2.29862 -4.61046
290 1 2.69272 5.56346 2.38986 -4.6047
291 1 2.97621 8.10232 -0.650565 -4.56154
292 1 1.53775 6.89929 0.953548 -4.54883
293 1 1.44483 9.43043 3.73755 -4.54813
294 1 4.19321 6.83632 3.78451 -4.61371
295 1 4.09524 9.46882 0.880406 -4.48949
296 1 5.45238 5.48528 -0.311862 -4.60015
297 1 5.389 8.29425 2.38071 -4.57988
298 1 8.11463 5.59557 2.34287 -4.5782
299 1 8.22844 8.17346 54.6244 -4.5982
300 1 6.71376 6.97743 1.0019 -4.61479
301 1 6.90447 9.5512 3.57991 -4.58701
302 1 9.64377 7.02657 3.60093 -4.59468
303 1 9.77491 9.43752 0.809296 -4.58595
304 1 10.8853 5.37389 -0.496117 -4.58293
305 1 11.1753 8.4405 2.36222 -4.30781
306 1 13.3959 5.63858 2.15707 -4.61845
307 1 13.7154 7.82837 54.2989 -4.37833
308 1 12.1511 6.97797 0.695865 -4.5633
309 1 12.6454 9.85163 3.77225 -4.93713
310 1 14.806 6.95374 3.53329 -4.46594
311 1 15.054 9.26786 0.604978 -4.75832
312 1 16.257 5.59376 54.4872 -4.4517
313 1 16.562 8.25907 2.32282 -4.67464
314 1 18.838 4.70465 1.71406 -4.0761
315 1 18.8314 7.24319 54.3133 -3.85384
316 1 17.6376 6.57248 1.01366 -4.4676
317 1 17.3868 8.56855 4.60597 -3.96471
318 1 19.4811 5.20745 3.99945 -4.19441
319 1 -16.3114 13.5895 4.85013 -4.15242
320 1 -15.9862 11.1723 54.6626 -4.69951
321 1 -15.6398 14.1551 2.514 -4.1092
322 1 -13.1148 10.9914 2.34873 -4.57215
323 1 -13.5793 13.4332 -0.267895 -4.70308
324 1 -14.8265 12.2523 1.31704 -4.62488
325 1 -14.2145 14.6659 4.43321 -4.81901
326 1 -11.842 12.381 3.65111 -4.49918
327 1 -12.362 14.912 1.02803 -4.68098
328 1 -10.991 10.8264 54.3912 -4.56031
329 1 -10.6289 13.6731 2.02477 -4.4823
330 1 -8.14736 10.8673 2.18558 -4.57542
331 1 -8.22555 13.6007 54.4952 -4.5403
332 1 -9.52804 12.052 0.665329 -4.58052
333 1 -9.47199 14.7209 3.65165 -4.47982
334 1 -6.65482 12.1296 3.59288 -4.6231
335 1 -6.69174 14.5791 0.801592 -4.52964
336 1 -5.44498 10.8806 54.5251 -4.57088
337 1 -5.29165 13.5503 2.33796 -4.58668
338 1 -2.43953 10.8092 2.26484 -4.57631
339 1 -2.5769 13.4352 54.7233 -4.63731
340 1 -4.04781 12.0381 0.964502 -4.62187
341 1 -4.05697 14.8438 3.84906 -4.59397
342 1 -1.17359 12.0523 3.849 -4.58214
343 1 -1.33291 14.688 1.16712 -4.58649
344 1 0.251388 10.7931 54.6455 -4.61631
345 1 0.150053 13.2883 2.27265 -4.61177
346 1 2.80931 10.7888 2.20831 -4.56068
347 1 2.9201 13.5754 54.5336 -4.59103
348 1 1.62394 12.1813 0.806593 -4.57407
349 1 1.32326 14.6679 3.75168 -4.62213
350 1 4.20639 12.1649 3.4848 -4.58326
351 1 4.20466 14.7549 0.988498 -4.53598
352 1 5.35889 10.893 54.8344 -4.52501
353 1 5.67332 13.6933 2.52507 -4.45986
354 1 8.35788 10.7623 2.24088 -4.55657
355 1 7.97487 13.4458 54.3942 -4.56367
356 1 6.90725 12.1974 1.03827 -4.5946
357 1 7.15929 14.897 3.94997 -4.52266
358 1 9.51713 12.0902 3.89821 -4.35713
359 1 9.19637 14.854 0.666827 -4.40631
360 1 10.8457 10.8177 54.3929 -4.39551
361 1 10.5857 13.818 2.2942 -4.72338
362 1 13.2967 10.6476 1.54155 -4.23981
363 1 13.2155 13.2078 54.0205 -4.35799
364 1 11.9691 12.3912 0.843746 -4.7375
365 1 11.7404 14.3237 4.32072 -4.27511
366 1 14.4427 11.2964 4.43027 -4.37834
367 1 14.0774 13.9159 0.992148 -4.25755
368 1 16.4967 10.6105 54.3754 -4.37745
369 1 15.06 12.0378 2.24758 -4.68341
370 1 16.8028 10.6054 1.67687 -4.11524
371 1 -14.0954 15.7819 2.30709 -4.12528
372 1 -13.1529 16.8431 4.42281 -4.21226
373 1 -10.0271 17.4374 54.0853 -4.3821
374 1 -8.09729 15.9019 2.20196 -4.60946
375 1 -8.1172 18.687 -0.273128 -4.17328
376 1 -9.45413 17.5335 1.32724 -4.42218
377 1 -6.94434 17.1259 3.73715 -4.67338
378 1 -8.14123 19.4445 2.01762 -4.25685
379 1 -5.42382 16.1417 54.7217 -4.58217
380 1 -5.84465 18.5811 2.30843 -4.62479
381 1 -2.86373 16.2013 2.27088 -4.60394
382 1 -2.40426 18.8514 -0.404644 -4.6409
383 1 -4.08787 17.6489 0.879417 -4.43778
384 1 -4.74367 19.6423 4.03811 -3.62521
385 1 -1.45422 17.3792 3.74104 -4.46408
386 1 -0.60183 19.9231 0.624881 -3.7259
387 1 0.277417 15.7118 -0.256304 -4.56427
388 1 0.0868292 18.5308 2.32848 -4.71647
389 1 2.74232 15.9917 2.41771 -4.65997
390 1 3.02958 18.9199 0.0383621 -4.6095
391 1 1.50105 17.3656 0.962757 -4.50552
392 1 1.2995 19.8271 3.87645 -4.60284
393 1 4.08606 17.2732 3.88131 -4.62716
394 1 2.80772 20.2581 2.05596 -4.1524
395 1 5.24046 16.2673 54.5435 -4.40069
396 1 4.96127 19.1831 2.64748 -4.32972
397 1 8.37593 16.7621 1.59319 -4.55751
398 1 9.77746 18.4401 0.490523 -4.45682
399 1 6.36648 17.7323 0.882198 -4.38482
400 1 5.73809 19.8306 4.72139 -3.68023
401 1 8.65527 16.6462 3.8903 -4.54665
402 1 10.6688 15.7458 54.1262 -4.60342
403 1 12.6066 15.2828 2.28264 -4.39606
404 1 11.5257 16.9168 0.819941 -3.64816
405 1 1.39925 21.0645 0.256783 -4.19968
406 1 -12.7805 -16.6479 5.21515 -4.20402
407 1 -8.22366 -18.4633 4.91354 -3.55382
408 1 -9.29884 -16.877 9.4568 -3.66282
409 1 -6.06006 -19.59 10.1767 -3.83952
410 1 -6.71163 -17.4185 6.38809 -4.60949
411 1 -5.56965 -18.761 8.00255 -4.64035
412 1 -2.81033 -19.0713 5.37714 -4.4914
413 1 -3.48215 -19.6895 7.61737 -3.54155
414 1 -4.28737 -17.1908 9.33914 -4.63463
415 1 -1.54096 -20.1217 9.11926 -4.52248
416 1 -1.51716 -17.5052 6.42541 -4.65782
417 1 1.06765 -21.2285 3.3988 -4.10578
418 1 -0.0992536 -18.9396 7.55323 -4.48367
419 1 2.2918 -18.4348 4.61493 -4.62433
420 1 0.855909 -20.1167 5.60198 -4.34872
421 1 1.19991 -17.7034 9.13075 -4.50853
422 1 5.16515 -19.595 9.51034 -3.97834
423 1 3.86566 -17.513 6.16059 -4.44717
424 1 5.71226 -18.3682 7.53818 -4.66533
425 1 8.4524 -18.3981 4.33259 -4.39805
426 1 7.61759 -18.9971 6.47666 -3.46872
427 1 6.68089 -16.8344 8.96268 -4.71447
428 1 9.46208 -17.4543 6.22108 -4.44782
429 1 12.9996 -16.3062 9.52698 -4.09779
430 1 -17.3791 -11.0617 7.24104 -3.70326
431 1 -16.2994 -13.0346 7.34255 -3.73471
432 1 -13.5457 -15.2296 6.93347 -4.23751
433 1 -13.4421 -13.3939 5.28859 -4.64726
434 1 -15.4943 -14.5564 5.77866 -4.31531
435 1 -14.927 -12.1916 9.11315 -4.70734
436 1 -12.0599 -14.6847 8.81928 -4.51734
437 1 -12.1742 -12.0332 6.70144 -4.47975
438 1 -10.5354 -16.0866 4.49651 -4.13029
439 1 -10.4451 -13.2521 7.82843 -4.54497
440 1 -7.95577 -15.8486 7.65276 -4.62319
441 1 -7.94846 -13.4112 4.99258 -4.58906
442 1 -9.54114 -14.7345 6.16137 -4.50958
443 1 -9.55659 -11.7949 9.4513 -4.54227
444 1 -6.681 -14.6993 9.33247 -4.55317
445 1 -6.83326 -12.1749 6.6826 -4.57519
446 1 -5.15068 -16.1959 5.08117 -4.57898
447 1 -5.30689 -13.4182 7.97565 -4.61383
448 1 -2.52435 -16.1672 8.07868 -4.54997
449 1 -2.62418 -13.516 5.36941 -4.57967
450 1 -3.98696 -14.9442 6.65858 -4.60172
451 1 -4.04529 -11.8084 9.27942 -4.57097
452 1 -1.24259 -14.7779 9.32299 -4.51849
453 1 -1.43004 -12.0306 6.55473 -4.55132
454 1 -0.183033 -16.1323 5.10643 -4.55679
455 1 -0.026828 -13.3805 7.94828 -4.60966
456 1 2.46234 -16.3272 7.65455 -4.62803
457 1 2.38394 -13.3466 5.28643 -4.57235
458 1 1.06955 -14.8658 6.52689 -4.54974
459 1 1.35317 -12.1424 9.32877 -4.61212
460 1 3.73154 -14.7098 8.88236 -4.55897
461 1 3.80102 -11.9408 6.43911 -4.60836
462 1 5.13741 -16.1036 4.82391 -4.61437
463 1 5.09639 -13.2676 7.76036 -4.5647
464 1 8.0053 -15.866 7.27329 -4.58953
465 1 7.74463 -13.1574 4.88528 -4.57233
466 1 6.30907 -14.5955 6.17702 -4.59368
467 1 6.74038 -12.0995 9.0269 -4.57879
468 1 9.22547 -14.789 9.00702 -4.60175
469 1 9.28892 -12.0579 6.22557 -4.58598
470 1 10.8046 -16.2004 4.71752 -4.47133
471 1 10.515 -13.4059 7.62513 -4.55854
472 1 13.8103 -15.5864 7.40376 -4.18746
473 1 13.2191 -13.4578 4.77339 -4.5377
474 1 11.8927 -14.704 6.25542 -4.53301
475 1 11.5857 -11.8597 9.02376 -4.43395
476 1 14.0753 -14.2446 9.44653 -4.67413
477 1 14.3829 -12.1118 6.28862 -4.54301
478 1 15.3771 -13.812 7.42244 -4.18077
479 1 16.3317 -13.0474 9.54022 -4.07504
480 1 -18.5625 -7.57883 5.19394 -3.8014
481 1 -19.2151 -6.2027 10.3267 -3.50664
482 1 -17.632 -9.68348 9.08336 -4.59778
483 1 -17.5316 -6.387 6.8406 -4.59789
484 1 -16.2458 -10.758 5.2001 -4.49443
485 1 -16.3198 -7.98805 7.93422 -4.55827
486 1 -13.5296 -10.6076 7.9624 -4.61574
487 1 -13.5234 -7.9131 5.21911 -4.59496
488 1 -14.9573 -9.30888 6.50503 -4.64347
489 1 -14.9616 -6.61721 9.39783 -4.5513
490 1 -12.2073 -9.21776 9.3635 -4.58734
491 1 -12.0966 -6.61029 6.54695 -4.60025
492 1 -10.9303 -10.7937 5.17016 -4.60296
493 1 -10.8543 -8.10431 7.87918 -4.61515
494 1 -8.00763 -10.7022 8.13721 -4.59372
495 1 -8.05734 -8.18202 5.29539 -4.61252
496 1 -9.45567 -9.49177 6.62299 -4.61216
497 1 -9.47149 -6.70665 9.23553 -4.61281
498 1 -6.79145 -9.20094 9.42332 -4.59321
499 1 -6.66047 -6.82995 6.66603 -4.60622
500 1 -5.48935 -10.8253 5.21005 -4.6028
501 1 -5.29275 -8.10424 8.07641 -4.56607
502 1 -2.69924 -10.5123 7.83547 -4.60932
503 1 -2.47146 -7.94312 5.14388 -4.61742
504 1 -4.0779 -9.28865 6.2918 -4.55449
505 1 -3.98164 -6.71088 9.4477 -4.57616
506 1 -1.28143 -9.50503 9.36983 -4.5614
507 1 -1.32442 -6.6041 6.71463 -4.56601
508 1 -0.0206769 -10.8543 5.09728 -4.63584
509 1 0.0940003 -8.19686 7.99132 -4.5817
510 1 2.55674 -10.5842 7.93249 -4.58095
511 1 2.50174 -7.87198 4.93506 -4.57087
512 1 1.31741 -9.44317 6.4517 -4.53124
513 1 1.44232 -6.75187 9.28211 -4.61926
514 1 4.01041 -9.36563 9.24709 -4.61507
515 1 3.80907 -6.61685 6.36977 -4.55891
516 1 5.13612 -10.5586 5.01287 -4.61936
517 1 5.12608 -7.98337 7.7205 -4.59564
518 1 7.99278 -10.6781 7.67805 -4.57159
519 1 7.87827 -7.74569 5.13694 -4.62341
520 1 6.6226 -9.29725 6.38634 -4.61967
521 1 6.64085 -6.85141 9.18794 -4.60847
522 1 9.11517 -9.12679 8.98101 -4.51429
523 1 9.36529 -6.49503 6.42058 -4.63856
524 1 10.6529 -10.3982 5.28513 -4.58762
525 1 10.5899 -7.78776 7.92621 -4.57503
526 1 13.2263 -10.5426 7.84478 -4.51572
527 1 13.6515 -7.72043 5.26205 -4.60648
528 1 12.0773 -8.98103 6.57236 -4.60086
529 1 12.079 -6.43089 9.1882 -4.61682
530 1 14.7491 -9.28574 9.05487 -4.53393
531 1 15.0855 -6.24545 6.44615 -4.59003
532 1 15.9416 -10.8661 5.06188 -4.56122
533 1 16.1346 -7.68171 7.99141 -4.62602
534 1 18.3284 -7.6319 5.35419 -3.81915
535 1 17.0369 -9.2954 6.45637 -3.73713
536 1 17.5751 -6.34213 9.39597 -4.70563
537 1 19.1668 -5.74169 6.32643 -3.64427
538 1 -18.6678 -4.84179 8.40017 -4.56863
539 1 -18.3653 -2.56812 5.63805 -4.66106
540 1 -20.0219 -3.96669 6.58296 -4.5008
541 1 -20.8535 -1.77913 7.44425 -3.81255
542 1 -17.2004 -3.52981 9.68431 -4.55253
543 1 -17.2605 -0.894455 7.01472 -4.49726
544 1 -16.2524 -5.24942 5.07454 -4.57588
545 1 -15.9899 -2.6122 7.97723 -4.51575
546 1 -13.4903 -5.31368 8.02305 -4.59428
547 1 -13.4963 -2.78651 5.27129 -4.57268
548 1 -14.8688 -4.05556 6.65106 -4.53024
549 1 -14.6186 -1.33942 9.30587 -4.60576
550 1 -12.0473 -3.98775 9.25835 -4.57719
551 1 -12.0642 -1.42537 6.53674 -4.5919
552 1 -10.7733 -5.42617 5.0373 -4.60454
553 1 -10.6809 -2.7624 7.84422 -4.60183
554 1 -7.96227 -5.37842 7.87827 -4.59094
555 1 -8.20647 -2.59708 5.07115 -4.60222
556 1 -9.29926 -4.09502 6.41677 -4.60176
557 1 -9.26708 -1.4162 9.1809 -4.58894
558 1 -6.62879 -3.93311 9.27371 -4.58668
559 1 -6.80788 -1.28812 6.40084 -4.55726
560 1 -5.46148 -5.35018 5.17375 -4.57256
561 1 -5.42741 -2.61467 7.79248 -4.57755
562 1 -2.98384 -5.29336 7.81827 -4.58164
563 1 -2.61628 -2.45646 5.14864 -4.58837
564 1 -4.11822 -3.83636 6.3787 -4.59528
565 1 -4.07165 -1.28513 9.2284 -4.5963
566 1 -1.53889 -4.07719 9.16157 -4.61378
567 1 -1.42393 -1.15374 6.63905 -4.59297
568 1 -0.0923859 -5.33049 5.14935 -4.6048
569 1 -0.0913357 -2.64654 7.95373 -4.62581
570 1 2.69485 -5.22062 7.95038 -4.58748
571 1 2.65702 -2.58755 5.25518 -4.52914
572 1 1.30032 -3.92187 6.52765 -4.60534
573 1 1.33864 -1.33143 9.3071 -4.58438
574 1 3.97861 -3.8635 9.22821 -4.57081
575 1 3.97903 -1.2191 6.49438 -4.58621
576 1 5.29113 -5.26576 4.95565 -4.63151
577 1 5.30646 -2.68695 7.68273 -4.60365
578 1 7.85412 -5.35474 7.78137 -4.63824
579 1 7.99887 -2.54227 5.12726 -4.55164
580 1 6.67306 -3.91008 6.3339 -4.54789
581 1 6.53089 -1.35092 9.18822 -4.61992
582 1 9.27087 -4.09805 9.16732 -4.60027
583 1 9.28104 -1.29088 6.51416 -4.56603
584 1 10.6928 -5.02096 5.13396 -4.57893
585 1 10.6455 -2.50643 7.91709 -4.5816
586 1 13.3632 -5.12869 7.70075 -4.59075
587 1 13.4765 -2.34778 5.05006 -4.5918
588 1 12.028 -3.67856 6.40988 -4.60919
589 1 11.9507 -1.20332 9.409 -4.61888
590 1 14.8059 -3.95226 9.16152 -4.59742
591 1 14.6732 -1.11999 6.75383 -4.61401
592 1 16.4794 -5.0563 4.94329 -4.46834
593 1 16.2393 -2.63475 7.77069 -4.38152
594 1 18.9635 -4.64649 8.44527 -3.82775
595 1 19.0364 -2.30921 4.80544 -4.43257
596 1 17.9029 -3.7571 6.43515 -5.01519
597 1 17.253 -1.06777 9.14936 -4.44197
598 1 20.2421 -2.22462 9.54299 -3.88842
599 1 20.2397 -0.571049 5.89572 -4.37128
600 1 -20.9715 0.241957 6.06584 -3.99839
601 1 -18.5274 0.350566 8.4458 -4.63075
602 1 -18.4305 3.0508 5.36285 -4.55503
603 1 -19.5883 1.93314 7.08055 -4.52833
604 1 -19.4089 3.69055 8.55136 -4.2536
605 1 -16.9756 1.63915 9.5961 -4.66831
606 1 -17.6594 4.57659 6.97311 -4.97462
607 1 -15.897 -0.0272866 5.29796 -4.5863
608 1 -16.0683 2.88459 7.85325 -4.39406
609 1 -13.1967 -0.0654977 8.01864 -4.52259
610 1 -13.3041 2.83582 5.2325 -4.61377
611 1 -14.5935 1.52721 6.63768 -4.552
612 1 -14.6515 4.08995 9.31631 -4.59982
613 1 -11.8281 1.51654 9.37726 -4.54195
614 1 -12.1611 4.27207 6.76371 -4.60863
615 1 -10.8757 0.156913 5.17866 -4.58443
616 1 -10.7189 2.88675 7.96902 -4.59486
617 1 -8.0088 0.0995873 7.74531 -4.57899
618 1 -8.22764 2.8491 4.92125 -4.62364
619 1 -9.4253 1.50965 6.44416 -4.61384
620 1 -9.25022 4.07346 9.37506 -4.57467
621 1 -6.59713 1.27336 9.25233 -4.57647
622 1 -6.9122 3.99843 6.52912 -4.5754
623 1 -5.57406 0.0912037 5.1859 -4.47344
624 1 -5.42763 2.66188 7.83335 -4.59356
625 1 -2.61025 0.212852 8.0806 -4.59745
626 1 -2.59911 2.76263 5.18672 -4.56627
627 1 -3.94903 1.4661 6.47136 -4.54811
628 1 -3.91087 3.79659 9.18551 -4.55613
629 1 -1.17829 1.58138 9.38343 -4.60759
630 1 -1.44962 4.23047 6.57209 -4.60785
631 1 -0.0110471 0.108802 5.18394 -4.59099
632 1 0.105921 2.74359 7.72574 -4.58662
633 1 2.74471 0.0833303 8.01135 -4.60704
634 1 2.7545 2.72167 5.20305 -4.52297
635 1 1.37333 1.25681 6.54351 -4.55959
636 1 1.33511 4.02586 9.33132 -4.6029
637 1 3.93819 1.69262 9.29104 -4.57209
638 1 4.14506 4.09785 6.60632 -4.60534
639 1 5.28001 0.0599805 5.07395 -4.56017
640 1 5.5962 2.68881 7.8648 -4.5996
641 1 8.01662 0.0057435 7.98952 -4.58457
642 1 7.89837 2.96724 5.22898 -4.55339
643 1 6.79138 1.3026 6.34067 -4.56005
644 1 6.7677 4.03245 9.42326 -4.61535
645 1 9.38534 1.34596 9.3593 -4.62749
646 1 9.42594 4.0305 6.57058 -4.54194
647 1 10.3978 0.0170301 4.92916 -4.51962
648 1 10.7759 2.68882 8.00917 -4.59247
649 1 13.1008 0.18846 7.90657 -4.55429
650 1 13.1839 2.71493 5.18382 -4.60023
651 1 11.6755 1.36934 6.30449 -4.53452
652 1 12.1525 4.04092 9.39656 -4.58172
653 1 14.7095 1.31882 9.18925 -4.53122
654 1 14.4904 4.18893 6.45289 -4.51931
655 1 15.9244 0.110295 5.12707 -4.61542
656 1 15.7559 2.88454 7.79674 -4.35621
657 1 18.7436 -0.191028 7.65302 -4.5938
658 1 18.4259 2.36909 5.00153 -4.59029
659 1 17.2004 1.34677 6.70451 -4.63576
660 1 17.3067 4.08169 9.03978 -4.76587
661 1 20.0628 1.45969 8.5837 -4.47265
662 1 20.0372 3.84645 5.83225 -4.45842
663 1 21.2484 1.63062 6.33568 -4.03432
664 1 -19.9346 6.03732 8.71458 -4.08506
665 1 -18.3498 8.18812 5.59303 -3.52107
666 1 -19.3593 6.13485 6.3172 -4.45328
667 1 -17.7845 6.82297 9.50221 -4.94886
668 1 -17.2434 9.95723 6.92116 -4.43987
669 1 -16.2105 5.62763 5.27893 -4.42041
670 1 -16.2415 8.30456 8.31063 -4.38806
671 1 -13.5702 5.71827 8.10314 -4.56452
672 1 -13.5008 8.43702 5.18627 -4.59921
673 1 -14.9414 7.12953 6.64375 -4.56459
674 1 -14.4535 9.23804 9.42718 -4.63787
675 1 -11.8034 6.69263 9.42874 -4.59206
676 1 -11.767 9.43758 6.51544 -4.56486
677 1 -10.8457 5.68073 5.31248 -4.60032
678 1 -10.4584 8.22586 8.15131 -4.56127
679 1 -8.21648 5.38571 7.82488 -4.5298
680 1 -8.01 8.12769 5.05672 -4.59631
681 1 -9.34174 6.94465 6.60086 -4.5672
682 1 -9.24674 9.59169 9.62852 -4.54554
683 1 -6.89038 6.48802 9.32651 -4.55567
684 1 -6.81211 9.53223 6.52007 -4.60888
685 1 -5.38879 5.31698 5.19021 -4.6147
686 1 -5.66178 8.02399 7.90477 -4.60255
687 1 -2.89905 5.47713 7.96543 -4.58906
688 1 -2.60837 8.0331 5.18031 -4.58342
689 1 -4.16799 6.85856 6.45792 -4.59876
690 1 -4.25446 9.4031 9.27038 -4.53195
691 1 -1.4168 6.77228 9.39791 -4.59696
692 1 -1.38469 9.35365 6.71111 -4.59918
693 1 -0.0292792 5.34659 5.01347 -4.61973
694 1 0.0327037 8.10523 8.05212 -4.63315
695 1 2.61334 5.40079 7.85217 -4.61963
696 1 2.68772 8.06764 5.15569 -4.65409
697 1 1.28058 6.74781 6.49465 -4.59142
698 1 1.2469 9.55419 9.37816 -4.54998
699 1 3.94737 6.76632 9.09053 -4.5579
700 1 4.19564 9.34092 6.44688 -4.58481
701 1 5.43713 5.36362 5.10241 -4.59832
702 1 5.45316 7.81809 7.73224 -4.57421
703 1 8.17676 5.46337 8.12506 -4.6082
704 1 8.20179 8.26305 5.03694 -4.59117
705 1 7.00829 6.62396 6.39909 -4.56984
706 1 6.61824 9.42701 9.15206 -4.5742
707 1 9.50741 6.98188 9.32421 -4.51129
708 1 9.78541 9.53435 6.36762 -4.55045
709 1 10.6916 5.366 4.97764 -4.60117
710 1 10.8231 8.08042 7.82311 -4.55145
711 1 13.2301 5.43747 7.87491 -4.53346
712 1 13.6567 8.16139 5.20711 -4.26227
713 1 12.061 6.73388 6.31574 -4.57398
714 1 12.0779 9.32441 9.38404 -4.40404
715 1 14.5138 6.3726 9.56578 -4.52781
716 1 15.1782 9.24344 6.87985 -4.89195
717 1 15.8182 5.39183 4.89217 -4.25649
718 1 16.0769 7.52743 8.26054 -4.24459
719 1 18.393 4.93634 7.22701 -4.09935
720 1 19.2578 7.40971 5.05097 -4.04343
721 1 17.1846 6.82375 6.31075 -5.31988
722 1 17.5414 9.06694 9.46194 -4.30631
723 1 19.4366 6.98975 7.46067 -4.03687
724 1 -16.4459 11.8754 8.24461 -4.14823
725 1 -15.9609 11.1458 5.21559 -4.40203
726 1 -15.8143 13.8534 7.12187 -4.22591
727 1 -13.0137 10.6076 8.10422 -4.47729
728 1 -12.76 13.2433 5.66503 -3.98212
729 1 -14.4444 11.9636 6.8164 -5.04345
730 1 -14.0985 15.06 8.04558 -4.03385
731 1 -11.4446 12.1343 9.17975 -4.58291
732 1 -11.9035 15.1553 6.98964 -5.39908
733 1 -10.6643 10.8542 4.87906 -4.57169
734 1 -10.2671 13.5925 7.75366 -4.34635
735 1 -8.07512 10.8428 8.01927 -4.56361
736 1 -7.82995 13.5948 5.04585 -4.57869
737 1 -9.20059 12.0859 6.33577 -4.57681
738 1 -9.07959 15.0759 9.13391 -4.63737
739 1 -6.61424 12.1962 9.21772 -4.63727
740 1 -6.60851 14.8664 6.47348 -4.53967
741 1 -5.35895 10.7831 5.11708 -4.56827
742 1 -5.16765 13.3955 7.77646 -4.56158
743 1 -2.74212 10.7664 8.08682 -4.61595
744 1 -2.5384 13.4766 5.13582 -4.57477
745 1 -3.91217 12.0137 6.39375 -4.6167
746 1 -4.0196 14.996 9.11654 -4.61182
747 1 -1.42628 12.2814 9.38556 -4.60546