ITEM: TIMESTEP
90000
ITEM: NUMBER OF ATOMS
4050
ITEM: BOX BOUNDS ss ss pp
-2.1039590850693440e+01 2.1058300054049802e+01
-2.1798895625509385e+01 2.1170404344426206e+01
-1.2219750000000003e+00 5.5531975000000003e+01
ITEM: ATOMS id type x y z c_peratom
1 1 -12.095 -15.9772 0.693622 -4.03305
2 1 -8.04859 -17.972 -0.426224 -4.50558
3 1 -9.00317 -17.3775 2.63173 -4.49066
4 1 -7.46016 -19.0781 1.80765 -4.32405
5 1 -6.53901 -16.418 0.374497 -4.68049
6 1 -5.42693 -18.0762 1.51631 -4.65465
7 1 -2.6489 -18.4518 -1.09973 -4.67311
8 1 -4.76718 -19.3138 -0.423155 -3.67547
9 1 -3.904 -17.37 3.27021 -4.38767
10 1 -0.881798 -19.2488 3.42162 -4.26656
11 1 -1.6726 -16.7383 0.128669 -4.54899
12 1 0.317999 -19.7374 0.4488 -4.66159
13 1 -0.270583 -17.8672 1.602 -4.62852
14 1 3.39934 -18.053 55.1346 -4.71797
15 1 2.61879 -19.5416 -0.000777138 -3.83014
16 1 1.49175 -16.877 2.76286 -4.62393
17 1 3.3558 -19.7283 2.18369 -4.1503
18 1 4.29733 -16.7368 0.101915 -4.70971
19 1 5.66759 -18.3415 1.13562 -4.18645
20 1 7.13705 -18.8468 -0.625473 -4.16596
21 1 9.94283 -17.9566 2.06776 -3.88223
22 1 6.49661 -16.9149 2.78465 -4.63876
23 1 9.05273 -17.2834 0.0278064 -4.42346
24 1 11.7989 -16.575 2.50142 -3.86636
25 1 -14.959 -13.022 0.84599 -3.9614
26 1 -15.9669 -14.3435 2.33682 -4.11986
27 1 -14.1949 -15.9464 2.07677 -4.16762
28 1 -12.8831 -13.4389 55.2682 -4.55819
29 1 -14.157 -15.0658 -0.202337 -4.4016
30 1 -14.548 -12.2151 3.10477 -4.7784
31 1 -11.3148 -14.83 2.73875 -4.90764
32 1 -12.0416 -11.8822 0.139503 -4.51221
33 1 -10.5368 -15.9959 -1.31306 -4.3937
34 1 -10.3743 -13.0936 1.30696 -4.42017
35 1 -8.15196 -15.3826 1.69332 -4.52956
36 1 -7.9391 -12.9799 55.3746 -4.58885
37 1 -9.18265 -14.5088 -0.164432 -4.56006
38 1 -9.13971 -11.7088 2.93977 -4.5456
39 1 -6.51712 -14.4231 2.97507 -4.56021
40 1 -6.65492 -11.6884 0.0765283 -4.60758
41 1 -5.11465 -15.7336 55.2713 -4.5584
42 1 -5.30341 -13.056 1.4836 -4.59829
43 1 -3.04254 -15.7317 1.7424 -4.50761
44 1 -2.46199 -13.0694 55.3651 -4.58102
45 1 -3.95654 -14.3476 -0.00830663 -4.58687
46 1 -3.90716 -11.8326 2.96984 -4.59499
47 1 -1.41786 -14.4086 2.84628 -4.60088
48 1 -1.43556 -11.7352 0.25055 -4.63102
49 1 0.0182433 -15.9023 55.4893 -4.51272
50 1 0.0374318 -13.1212 1.43747 -4.52475
51 1 2.6795 -15.5 1.30021 -4.57893
52 1 2.80132 -13.0966 55.4176 -4.58764
53 1 1.22026 -14.2901 -0.066978 -4.55845
54 1 1.21848 -11.6781 2.84812 -4.52597
55 1 3.88302 -14.1666 2.9154 -4.61874
56 1 3.92214 -11.5142 0.0459352 -4.57164
57 1 5.45057 -15.5838 55.1971 -4.44802
58 1 5.2406 -12.8939 1.39208 -4.63143
59 1 7.88648 -15.8444 1.40787 -4.60484
60 1 7.78149 -12.9985 55.5281 -4.58822
61 1 6.57819 -14.4087 0.148725 -4.53663
62 1 6.52258 -11.6129 2.85143 -4.59064
63 1 8.87263 -14.4584 2.98063 -4.50992
64 1 9.20408 -11.6276 -0.0160397 -4.5837
65 1 10.7157 -15.746 55.6725 -4.40015
66 1 10.0115 -12.8582 1.81078 -4.47385
67 1 13.2504 -15.482 1.11595 -4.48798
68 1 12.5455 -12.5041 -0.544761 -4.10355
69 1 11.4378 -14.2518 0.583573 -4.72018
70 1 11.6998 -11.5185 2.78954 -4.62972
71 1 14.6108 -13.8925 2.39999 -4.09975
72 1 14.4324 -11.989 1.02635 -5.33239
73 1 16.3719 -13.4514 0.725839 -4.06257
74 1 16.7454 -11.4447 1.92886 -4.14336
75 1 -18.0987 -7.66795 54.9815 -4.19656
76 1 -18.526 -5.94576 3.96976 -4.18596
77 1 -17.3356 -9.05723 3.39628 -3.64581
78 1 -17.1282 -6.72208 0.300919 -4.38682
79 1 -15.5908 -10.9768 -1.04477 -4.04495
80 1 -15.9368 -8.07596 1.75275 -4.64851
81 1 -13.1242 -10.6571 1.85121 -4.34116
82 1 -13.4263 -8.05689 -1.01827 -4.58504
83 1 -14.5875 -9.52264 0.492744 -4.62646
84 1 -14.6568 -6.67793 3.14181 -4.47586
85 1 -11.8706 -9.15174 3.20762 -4.57727
86 1 -11.9573 -6.78863 0.414829 -4.59223
87 1 -10.6372 -10.5478 -1.06708 -4.5047
88 1 -10.4137 -7.8789 1.90517 -4.55805
89 1 -7.81756 -10.1669 1.58831 -4.61079
90 1 -7.83731 -7.76304 -1.19969 -4.58404
91 1 -9.31169 -9.04536 0.168749 -4.60759
92 1 -9.06298 -6.6349 3.3951 -4.56364
93 1 -6.45907 -8.88306 3.04976 -4.5515
94 1 -6.59095 -6.49969 0.406084 -4.59496
95 1 -5.20415 -10.3686 55.4342 -4.58417
96 1 -4.95582 -7.81291 1.61847 -4.58839
97 1 -2.61921 -10.3523 1.73684 -4.56141
98 1 -2.53954 -7.91248 55.5117 -4.59131
99 1 -3.83806 -9.18769 0.204634 -4.52964
100 1 -3.58057 -6.43455 2.92942 -4.59544
101 1 -0.979774 -9.04887 2.80095 -4.56434
102 1 -1.2941 -6.43003 -0.0139887 -4.50443
103 1 0.0832362 -10.5188 55.5658 -4.58198
104 1 0.0478071 -7.50989 1.38961 -4.53135
105 1 2.67624 -10.2145 1.63537 -4.59919
106 1 2.70504 -7.78943 55.3877 -4.59646
107 1 1.35893 -9.04928 0.0770273 -4.63365
108 1 1.22408 -6.03952 2.8934 -4.55658
109 1 3.88345 -8.87776 3.1462 -4.57883
110 1 4.07053 -6.52502 0.167211 -4.59137
111 1 5.26744 -10.4556 55.2183 -4.59939
112 1 5.43953 -7.73423 1.59313 -4.53514
113 1 7.86799 -10.2584 1.38738 -4.64079
114 1 8.17583 -7.96896 55.4725 -4.56213
115 1 6.46901 -9.08772 -0.0854707 -4.55766
116 1 6.51446 -6.20762 3.00193 -4.55786
117 1 9.28455 -8.9295 2.76921 -4.6174
118 1 9.16621 -6.31368 0.150773 -4.60338
119 1 10.4346 -10.1714 55.3442 -4.55972
120 1 10.7261 -7.42997 1.55086 -4.62418
121 1 13.1798 -10.0698 1.73428 -4.31136
122 1 13.2816 -7.71995 55.3932 -4.61073
123 1 11.9074 -8.96611 0.041748 -4.53354
124 1 12.0362 -6.16737 3.06674 -4.5964
125 1 14.7412 -9.11542 3.32901 -4.61549
126 1 14.5213 -6.61701 0.375773 -4.57176
127 1 15.2183 -10.6902 -0.825142 -4.29743
128 1 16.0138 -7.9854 1.69855 -4.64004
129 1 18.1294 -8.55702 55.439 -3.49242
130 1 16.9932 -9.60085 0.406969 -4.63603
131 1 17.519 -6.40306 2.58595 -4.59223
132 1 19.2934 -6.55037 -0.80652 -3.5377
133 1 -18.101 -4.90375 1.77587 -4.39687
134 1 -18.2056 -2.46157 -0.7521 -4.86409
135 1 -19.7411 -3.26578 0.91124 -4.27081
136 1 -18.8001 -1.90235 2.56194 -4.48478
137 1 -16.2598 -3.90961 2.88579 -4.3857
138 1 -17.4371 -0.854472 0.874533 -4.81304
139 1 -15.812 -5.3366 -1.06564 -4.65984
140 1 -15.5625 -2.29948 1.30298 -4.34118
141 1 -13.3448 -5.29186 1.70459 -4.50047
142 1 -13.0449 -2.49876 55.4423 -4.57725
143 1 -14.2777 -3.94342 0.125831 -4.52617
144 1 -14.5808 -1.13112 3.1377 -4.58063
145 1 -11.953 -4.00461 2.91492 -4.5481
146 1 -11.8435 -1.20255 0.214084 -4.58412
147 1 -10.7844 -5.45167 55.6824 -4.52813
148 1 -10.6225 -2.52705 1.77858 -4.57155
149 1 -8.09384 -5.3231 1.76247 -4.57552
150 1 -7.99006 -2.66121 55.5431 -4.57871
151 1 -9.29563 -3.8691 0.23412 -4.50997
152 1 -9.2362 -1.32136 3.2127 -4.56885
153 1 -6.56861 -3.93768 3.05292 -4.59672
154 1 -6.74523 -1.14721 0.203338 -4.58904
155 1 -5.30945 -5.25284 -1.11726 -4.59312
156 1 -5.36224 -2.56846 1.67547 -4.56486
157 1 -2.55568 -5.05054 1.39381 -4.50508
158 1 -2.68648 -2.64077 55.4799 -4.56881
159 1 -3.98089 -3.79569 0.265497 -4.53507
160 1 -4.0051 -1.06636 3.04298 -4.59431
161 1 -1.52165 -3.70342 3.01529 -4.563
162 1 -1.0568 -1.29619 0.00974093 -4.51616
163 1 0.0440539 -5.00859 55.5948 -4.59674
164 1 0.1373 -2.61329 1.71372 -4.54851
165 1 2.82003 -4.96448 1.53598 -4.58293
166 1 2.50533 -2.29784 -1.39182 -4.56634
167 1 1.46414 -3.67194 0.168842 -4.57163
168 1 1.4984 -1.17736 2.87506 -4.5837
169 1 4.07254 -3.70699 3.02031 -4.57538
170 1 4.04953 -1.07891 0.0238809 -4.6034
171 1 5.44721 -5.08533 55.452 -4.54241
172 1 5.33357 -2.31344 1.46731 -4.57115
173 1 7.99234 -4.96757 1.653 -4.60825
174 1 8.09104 -2.35533 -1.05971 -4.60191
175 1 6.65144 -3.68989 0.163846 -4.62263
176 1 6.61309 -1.06592 2.97342 -4.58481
177 1 9.43246 -3.68123 2.96262 -4.57825
178 1 9.40677 -0.888909 0.21158 -4.54304
179 1 10.5589 -4.93278 -1.1954 -4.60461
180 1 10.7447 -2.11111 1.65987 -4.58618
181 1 13.3337 -4.8943 1.58786 -4.58081
182 1 13.2249 -2.41857 -1.00314 -4.56239
183 1 11.8711 -3.66456 0.276617 -4.56988
184 1 12.1356 -0.957317 3.23986 -4.57581
185 1 14.7628 -3.82776 3.188 -4.59463
186 1 14.5855 -1.32765 0.590588 -4.56005
187 1 15.8922 -5.42657 -1.17102 -4.4772
188 1 16.1498 -2.61625 1.69278 -4.55733
189 1 18.8771 -5.09793 1.01852 -4.64227
190 1 18.6847 -2.45601 55.4768 -4.67449
191 1 17.2014 -3.83636 0.0150901 -4.62337
192 1 17.2534 -1.19694 3.10149 -4.59157
193 1 19.6779 -2.86934 1.62317 -3.50126
194 1 20.0492 -1.00756 -0.00550358 -4.30693
195 1 -20.2975 -1.28806 -0.485616 -4.36075
196 1 -19.6146 0.202611 2.97063 -4.32636
197 1 -18.4828 2.40678 -0.761011 -4.29465
198 1 -19.223 0.556072 0.573218 -4.24714
199 1 -19.5206 4.60384 4.03495 -3.56222
200 1 -17.5607 1.46805 3.39604 -4.53928
201 1 -17.4153 3.69872 0.783074 -4.36923
202 1 -16.1284 0.0878233 -1.13865 -4.33634
203 1 -15.8628 2.42882 2.04624 -4.4688
204 1 -13.2046 0.0593741 1.69025 -4.6201
205 1 -13.4079 2.68633 -1.08822 -4.59033
206 1 -14.6969 1.31075 0.318063 -4.5738
207 1 -14.8258 4.01264 3.28479 -4.52829
208 1 -11.9156 1.55986 3.06741 -4.6141
209 1 -12.1252 4.15862 0.286289 -4.5848
210 1 -10.5798 0.267056 -1.0989 -4.53878
211 1 -10.5895 2.96282 1.62847 -4.64581
212 1 -8.18394 0.129481 1.7608 -4.54387
213 1 -7.92363 2.57149 55.5723 -4.61067
214 1 -9.32733 1.43898 0.319528 -4.47633
215 1 -9.32962 4.39528 3.01556 -4.58685
216 1 -6.70678 1.45369 3.04148 -4.61707
217 1 -6.57926 4.06058 0.130457 -4.56065
218 1 -5.13306 0.0940317 -1.03328 -4.53764
219 1 -5.34396 2.73485 1.6734 -4.58967
220 1 -2.41526 0.00121054 1.51295 -4.53408
221 1 -2.82746 2.80905 -1.11654 -4.60363
222 1 -3.90143 1.31838 0.450322 -4.53779
223 1 -4.04958 3.90919 3.19663 -4.59813
224 1 -1.22747 1.33709 3.01489 -4.62783
225 1 -1.41433 4.08508 0.393226 -4.56548
226 1 -0.014616 0.344969 -1.15059 -4.53031
227 1 0.0433702 2.76031 1.59113 -4.62879
228 1 2.9008 0.266621 1.54953 -4.59289
229 1 2.56965 2.91165 -1.13671 -4.48528
230 1 1.4668 1.51234 0.168162 -4.52304
231 1 1.44328 4.08277 2.98133 -4.63005
232 1 4.19868 1.57697 3.00745 -4.55116
233 1 4.03283 4.11776 0.202533 -4.5953
234 1 5.45729 0.258984 -1.21546 -4.60322
235 1 5.49147 2.88248 1.60643 -4.61791
236 1 8.04594 0.336646 1.75945 -4.6097
237 1 8.0117 3.06593 55.5496 -4.56024
238 1 6.85475 1.57794 0.130648 -4.60806
239 1 6.82338 4.32145 2.88511 -4.57734
240 1 9.37271 1.72236 3.10557 -4.61833
241 1 9.53937 4.21099 0.141724 -4.57262
242 1 10.5194 0.456609 -1.19691 -4.59523
243 1 10.771 3.03794 1.76298 -4.57863
244 1 13.2412 0.325627 1.54113 -4.54704
245 1 13.2735 2.89892 -1.47281 -4.58674
246 1 12.0142 1.62877 0.15501 -4.50715
247 1 12.0754 4.41662 3.15024 -4.55308
248 1 14.5634 1.77907 2.73941 -4.56765
249 1 14.4718 4.41981 -0.0493825 -4.3701
250 1 15.6918 0.0518293 -1.01394 -4.53229
251 1 15.9695 3.1853 1.52564 -4.34513
252 1 18.7413 0.146132 1.63443 -4.48658
253 1 18.2274 1.80956 55.2611 -4.53189
254 1 17.0299 1.35703 0.523878 -4.5588
255 1 17.2417 4.47303 3.09684 -4.85594
256 1 19.7974 1.17109 3.55044 -4.31306
257 1 19.896 3.15253 -0.660299 -4.1352
258 1 20.3908 0.970701 55.0095 -3.99013
259 1 -18.8949 5.30247 1.83801 -4.3591
260 1 -18.422 8.10431 54.6072 -4.36379
261 1 -18.6522 6.41237 -0.400823 -4.13195
262 1 -17.2749 6.76969 3.14735 -4.55644
263 1 -17.3546 9.20697 -0.446542 -3.59238
264 1 -16.7103 5.07512 -1.10946 -5.32498
265 1 -16.2342 7.95948 1.37591 -4.57673
266 1 -13.7595 5.34643 1.74408 -4.47737
267 1 -13.4151 7.86278 -1.26295 -4.557
268 1 -14.9764 6.53233 -0.016925 -4.34018
269 1 -14.7333 9.26569 2.60502 -4.52864
270 1 -12.1977 6.60679 2.8145 -4.49305
271 1 -12.0298 9.24934 0.139328 -4.55883
272 1 -10.5784 5.31209 55.6624 -4.59821
273 1 -10.741 8.13201 1.63798 -4.54156
274 1 -7.93505 5.42773 1.53793 -4.58528
275 1 -8.18081 8.2288 55.4443 -4.57454
276 1 -9.34383 6.825 0.160145 -4.60496
277 1 -9.12108 9.18941 2.8423 -4.49743
278 1 -6.59345 6.73927 3.02153 -4.58829
279 1 -6.60015 9.37341 -0.0889237 -4.57147
280 1 -5.50129 5.43369 -1.33899 -4.55656
281 1 -5.3515 8.28171 1.48775 -4.50465
282 1 -2.87754 5.40091 1.66318 -4.58405
283 1 -2.80565 8.08472 55.4953 -4.59442
284 1 -4.16147 6.77116 0.161066 -4.61086
285 1 -4.05314 9.3638 3.1103 -4.57917
286 1 -1.32286 6.66957 3.04068 -4.59276
287 1 -1.42381 9.23328 0.227091 -4.55764
288 1 -0.0163528 5.34712 -1.25704 -4.55353
289 1 -0.00465342 7.92932 1.65085 -4.57744
290 1 2.79475 5.44777 1.57417 -4.56567
291 1 2.6254 8.08715 55.504 -4.60599
292 1 1.33429 6.67509 0.107381 -4.61593
293 1 1.36986 9.34027 2.95471 -4.62545
294 1 4.16457 6.92192 3.04483 -4.59127
295 1 4.01005 9.34278 0.165377 -4.62496
296 1 5.34031 5.47595 55.5207 -4.61082
297 1 5.50121 8.15321 1.53163 -4.57398
298 1 8.18818 5.5912 1.44072 -4.61505
299 1 8.12561 8.04819 55.3701 -4.60687
300 1 6.72971 6.82515 0.0377925 -4.61005
301 1 6.72791 9.56974 2.8668 -4.57781
302 1 9.30997 7.02091 3.03023 -4.55318
303 1 9.37466 9.56354 0.0319887 -4.54986
304 1 10.9109 5.54663 55.5704 -4.59194
305 1 10.69 8.40831 1.54756 -4.3057
306 1 13.2192 5.80573 1.45193 -4.53478
307 1 13.3598 8.02653 54.7052 -4.47008
308 1 12.1647 7.27276 -0.0828557 -4.50504
309 1 12.4602 9.70439 2.86178 -4.87621
310 1 14.5311 7.15428 2.76244 -4.49279
311 1 14.8843 9.13642 -0.69589 -4.40935
312 1 16.1169 5.79413 55.7343 -4.8268
313 1 16.5359 8.22593 1.84965 -4.35142
314 1 18.741 4.65749 1.18594 -3.95594
315 1 18.2048 6.8355 54.9407 -4.31084
316 1 17.912 6.64721 0.518726 -4.26986
317 1 17.5804 8.75605 3.88919 -4.17406
318 1 19.4753 5.33719 3.34076 -4.23028
319 1 -16.4924 13.0979 3.95669 -4.25213
320 1 -15.8821 10.9209 -1.22151 -4.68982
321 1 -16.0081 13.715 1.68553 -4.19128
322 1 -13.1624 10.69 1.56617 -4.58435
323 1 -13.5083 13.2853 -1.01866 -4.7247
324 1 -14.8077 12.1035 0.49014 -4.60175
325 1 -14.2676 13.9251 3.36687 -4.83131
326 1 -11.7477 11.8982 3.03057 -4.51199
327 1 -12.4269 14.8323 0.293243 -4.63691
328 1 -10.5752 10.6877 55.6313 -4.6209
329 1 -10.7242 13.3602 1.32605 -4.47242
330 1 -7.89234 10.6863 1.34568 -4.60202
331 1 -7.75666 13.5141 55.432 -4.58511
332 1 -9.17664 12.2141 0.0332734 -4.55935
333 1 -9.5668 14.5522 2.88485 -4.52939
334 1 -6.61442 11.9721 2.83068 -4.58178
335 1 -6.44888 14.9225 -0.029264 -4.55272
336 1 -5.22007 10.7993 55.4147 -4.61642
337 1 -5.2942 13.4289 1.42754 -4.55544
338 1 -2.68081 10.4976 1.68239 -4.54624
339 1 -2.66706 13.3202 -1.29888 -4.58413
340 1 -3.84281 12.0229 0.226834 -4.57839
341 1 -3.92611 14.6889 3.13173 -4.57603
342 1 -1.44372 11.8776 3.02602 -4.55248
343 1 -1.31867 14.6222 0.120506 -4.61445
344 1 -0.185769 10.6454 55.4276 -4.57626
345 1 -0.0861264 13.2587 1.60528 -4.63636
346 1 2.64341 10.7472 1.5591 -4.60482
347 1 2.51045 13.3953 -1.22651 -4.59854
348 1 1.20414 12.0089 0.077685 -4.60809
349 1 1.37356 14.6499 2.91763 -4.54619
350 1 3.89317 12.0768 3.03472 -4.61917
351 1 3.86232 14.7604 0.0721779 -4.52937
352 1 5.3145 10.8467 55.5578 -4.61497
353 1 5.20082 13.5923 1.72451 -4.46231
354 1 8.05767 10.8893 1.38917 -4.6023
355 1 7.828 13.4915 55.3527 -4.41525
356 1 6.59267 12.2843 0.264082 -4.57677
357 1 6.6431 14.9656 3.31214 -4.51323
358 1 9.28825 12.2226 2.85724 -4.40047
359 1 9.2804 14.7676 -0.00858297 -4.80411
360 1 10.6046 10.9655 55.2819 -4.38632
361 1 10.6661 13.3966 1.30281 -4.69587
362 1 13.3319 10.3435 0.604576 -4.3803
363 1 13.2229 13.5151 54.7274 -4.27472
364 1 12.1804 12.2582 -0.22062 -4.83455
365 1 11.4334 14.4573 3.32935 -4.28405
366 1 14.2583 11.3276 3.46851 -4.34531
367 1 13.9817 13.8083 0.275287 -4.25369
368 1 16.1646 10.5882 54.818 -4.27717
369 1 15.0112 11.8434 1.25963 -4.67001
370 1 16.5438 10.2589 0.358917 -4.25914
371 1 -14.3009 15.4943 1.49454 -4.18261
372 1 -13.5089 16.1589 3.6753 -4.19482
373 1 -10.094 17.0815 54.9718 -4.40319
374 1 -8.20463 15.7694 1.32669 -4.54969
375 1 -8.26783 18.384 -1.00823 -4.10363
376 1 -9.61422 17.313 0.58079 -4.38641
377 1 -6.9351 16.7719 2.95708 -4.64319
378 1 -8.30728 19.2268 1.24141 -4.2741
379 1 -5.30654 16.5183 55.412 -4.54511
380 1 -6.02089 18.2544 1.34004 -4.61702
381 1 -2.6953 15.9599 1.50753 -4.60048
382 1 -2.52248 18.9111 -1.09463 -4.58586
383 1 -3.96134 17.5054 0.212144 -4.41246
384 1 -4.86802 19.3109 3.14025 -3.7678
385 1 -1.46777 17.1968 2.98815 -4.59201
386 1 -0.69665 19.8878 -0.0554016 -3.66536
387 1 0.0118101 15.9497 -1.20597 -4.54675
388 1 0.0901697 18.4008 1.71046 -4.68937
389 1 2.62475 16.0694 1.49352 -4.52781
390 1 2.78861 19.2951 -0.573556 -4.38425
391 1 1.47174 17.4816 0.0666362 -4.5693
392 1 1.01433 19.7972 3.31916 -4.54247
393 1 3.48413 17.1745 3.44309 -4.59809
394 1 2.65312 20.4045 1.60991 -4.22097
395 1 5.05321 16.1008 55.3437 -4.47537
396 1 4.55666 18.8658 2.11826 -4.314
397 1 7.9262 16.5757 0.645457 -4.49581
398 1 9.23305 18.1099 -0.379841 -4.34194
399 1 5.97205 17.7092 0.00475805 -4.23888
400 1 5.53113 19.8559 4.04155 -3.73883
401 1 8.31143 16.5852 3.03991 -4.5925
402 1 10.3042 15.5635 54.6608 -4.22931
403 1 12.269 15.1547 1.2742 -4.29458
404 1 11.0332 16.5018 -0.223153 -4.2368
405 1 1.26725 20.9668 -0.392097 -4.36136
406 1 -12.7013 -16.4063 3.98474 -4.20262
407 1 -7.69801 -18.4723 4.20761 -3.49116
408 1 -8.97524 -16.6891 9.15686 -3.64431
409 1 -6.51598 -19.1834 9.67302 -4.19141
410 1 -6.45976 -17.1939 5.84885 -4.5363
411 1 -5.43878 -18.0198 7.79877 -4.18202
412 1 -2.58942 -18.4666 4.95418 -4.38644
413 1 -3.38032 -19.2408 7.06386 -4.18202
414 1 -3.30267 -17.3022 8.55239 -4.79948
415 1 -1.30088 -19.7167 8.19716 -4.13091
416 1 -1.03716 -17.0061 5.80997 -4.66986
417 1 1.1393 -20.6121 2.58932 -4.15731
418 1 0.218941 -18.5471 6.90511 -4.42887
419 1 2.83677 -18.3404 3.97915 -4.58705
420 1 1.05241 -19.6002 4.79633 -4.35374
421 1 1.66311 -17.1735 8.20055 -4.50286
422 1 5.15351 -18.9958 9.14937 -4.03329
423 1 4.11626 -17.112 5.57228 -4.45673
424 1 5.7023 -17.7952 7.21822 -4.63475
425 1 8.24067 -18.2143 3.71189 -4.56155
426 1 7.43845 -18.4678 6.0126 -3.41312
427 1 6.95825 -16.3896 8.57228 -4.66795
428 1 9.23043 -16.9276 5.48385 -4.41444
429 1 12.7784 -15.7617 9.69074 -4.16235
430 1 -18.0454 -10.0453 6.52801 -4.12122
431 1 -16.4089 -12.0156 6.54085 -4.11352
432 1 -13.4053 -14.5234 5.46899 -4.37257
433 1 -12.4238 -13.0929 3.91372 -4.38084
434 1 -15.5175 -13.6183 4.79518 -4.10298
435 1 -14.8016 -11.7131 8.20096 -4.50957
436 1 -12.0941 -14.3875 7.91233 -4.23008
437 1 -11.8889 -11.6937 5.66246 -4.54603
438 1 -10.323 -16.2231 4.36807 -4.17924
439 1 -10.4342 -13.1152 6.91457 -4.67831
440 1 -7.82927 -15.6579 7.2329 -4.61022
441 1 -7.79324 -13.0333 4.40363 -4.62594
442 1 -9.19377 -14.5751 5.62977 -4.52079
443 1 -9.25251 -11.9422 8.60041 -4.59165
444 1 -6.29519 -14.4376 8.62907 -4.57229
445 1 -6.41626 -11.8812 5.89908 -4.55328
446 1 -5.1417 -15.7141 4.48305 -4.60369
447 1 -4.98577 -13.0588 7.28415 -4.56581
448 1 -2.27917 -15.6591 7.21493 -4.46323
449 1 -2.53066 -13.059 4.45761 -4.61465
450 1 -3.81107 -14.4224 5.94419 -4.55457
451 1 -3.8587 -11.7307 8.813 -4.57232
452 1 -1.12679 -14.2482 8.59481 -4.59955
453 1 -1.26072 -11.6802 5.80099 -4.55061
454 1 0.152234 -15.6143 4.30745 -4.57662
455 1 0.182034 -12.8691 7.23739 -4.63449
456 1 2.88251 -15.6846 6.98779 -4.59153
457 1 2.6263 -12.719 4.31374 -4.58701
458 1 1.38282 -14.2101 5.74215 -4.60828
459 1 1.55932 -11.691 8.81807 -4.58436
460 1 3.96755 -14.3193 8.62685 -4.55279
461 1 3.92862 -11.568 5.89371 -4.55874
462 1 5.26033 -15.5611 4.30381 -4.5518
463 1 5.14298 -12.8281 7.38648 -4.54291
464 1 8.18192 -15.3788 6.87513 -4.49347
465 1 7.69215 -13.0067 4.37417 -4.61563
466 1 6.42619 -14.2293 5.96103 -4.56933
467 1 6.51361 -11.4965 8.70197 -4.58139
468 1 9.33549 -14.1012 8.58163 -4.51902
469 1 9.22164 -11.6221 5.5876 -4.59042
470 1 10.53 -15.4681 4.21166 -4.56455
471 1 10.5848 -12.8399 7.09478 -4.62574
472 1 13.2921 -15.2593 7.33378 -4.02691
473 1 13.0482 -13.0551 3.96155 -4.53368
474 1 11.849 -14.2705 5.692 -4.49802
475 1 11.9316 -11.6375 8.46931 -4.31644
476 1 13.3306 -13.4359 9.26378 -5.20465
477 1 14.5636 -12.0247 5.54389 -4.49583
478 1 14.9734 -13.6059 7.33189 -4.06643
479 1 15.9292 -13.1649 9.50055 -4.1192
480 1 -18.5164 -7.98031 5.20173 -4.46067
481 1 -18.9237 -6.23319 9.73976 -3.43548
482 1 -17.054 -9.66569 8.82519 -4.54736
483 1 -16.9532 -6.83141 6.64495 -4.46625
484 1 -16.1755 -10.3414 4.98276 -4.5947
485 1 -15.5363 -7.98844 8.13271 -4.53381
486 1 -13.1126 -10.3502 7.20409 -4.59721
487 1 -13.2406 -7.85659 4.62106 -4.57265
488 1 -14.6292 -8.91129 6.13806 -4.63789
489 1 -14.2692 -6.42564 9.12827 -4.49766
490 1 -11.8731 -9.24663 8.90294 -4.54537
491 1 -11.796 -6.46286 5.99998 -4.61704
492 1 -10.3614 -10.4073 4.40819 -4.64593
493 1 -10.57 -8.07804 7.29647 -4.57472
494 1 -7.71194 -10.5909 7.35218 -4.62504
495 1 -7.61043 -7.73249 4.87575 -4.56384
496 1 -9.03042 -9.21015 6.00011 -4.58057
497 1 -9.38064 -6.58766 8.61457 -4.59815
498 1 -6.7067 -9.20394 8.92773 -4.56864
499 1 -6.36226 -6.18147 6.09305 -4.54339
500 1 -5.29819 -10.4784 4.36819 -4.63917
501 1 -5.45142 -7.93976 7.47094 -4.50872
502 1 -2.68172 -10.5194 7.20489 -4.60502
503 1 -2.42971 -7.91921 4.33444 -4.51223
504 1 -4.07489 -9.04701 5.93416 -4.5023
505 1 -3.88323 -6.37305 8.66571 -4.54927
506 1 -1.38501 -9.25931 8.70599 -4.60431
507 1 -1.44473 -6.43142 5.92897 -4.569
508 1 0.183506 -10.3518 4.36369 -4.52062
509 1 -0.151549 -7.73481 7.39017 -4.61748
510 1 2.60674 -10.1794 7.38931 -4.54359
511 1 2.42808 -7.51463 4.35672 -4.58183
512 1 1.21955 -8.93049 5.89518 -4.56275
513 1 1.39211 -6.36596 8.6538 -4.60251
514 1 3.94653 -8.96133 8.71191 -4.59025
515 1 3.82194 -6.34374 5.80167 -4.61674
516 1 5.31325 -10.308 4.42541 -4.63309
517 1 5.20987 -7.67541 7.20542 -4.58495
518 1 7.89726 -10.3782 7.15912 -4.57844
519 1 7.96094 -7.56849 4.21351 -4.589
520 1 6.67148 -8.88192 5.71773 -4.61891
521 1 6.65404 -6.37746 8.6651 -4.59984
522 1 9.27338 -9.2121 8.65622 -4.59983
523 1 9.56624 -6.789 5.83928 -4.51457
524 1 10.5633 -10.1687 4.25973 -4.60841
525 1 10.9848 -7.96929 7.37498 -4.54092
526 1 13.3058 -10.566 6.98466 -4.59713
527 1 13.4121 -7.47989 4.44552 -4.53843
528 1 12.1328 -9.03117 5.64378 -4.59546
529 1 12.2142 -6.52666 8.67489 -4.58328
530 1 14.7802 -9.42156 8.48003 -4.56066
531 1 14.9177 -6.61694 5.91494 -4.48768
532 1 16.1433 -10.6863 4.18388 -4.489
533 1 16.2359 -8.00271 7.30367 -4.62777
534 1 18.4066 -7.65901 4.35522 -3.86163
535 1 17.3404 -9.22492 5.62777 -3.72362
536 1 17.3515 -6.70519 9.06118 -4.37016
537 1 19.1319 -5.88063 5.65812 -3.6873
538 1 -18.3484 -5.15112 7.72825 -4.62687
539 1 -17.6727 -2.67529 4.35345 -4.28752
540 1 -19.0297 -4.14629 5.64267 -4.31222
541 1 -19.4332 -2.11485 6.9335 -4.00861
542 1 -17.0691 -3.58679 8.88322 -4.57521
543 1 -17.5311 -1.02333 6.05943 -5.38751
544 1 -16.1516 -5.66298 4.74139 -4.85006
545 1 -15.8243 -2.46093 7.21061 -4.33609
546 1 -13.187 -5.16331 7.36945 -4.57656
547 1 -13.2147 -2.66109 4.38787 -4.59136
548 1 -14.5641 -3.96671 5.81998 -4.36989
549 1 -14.379 -1.12256 8.6293 -4.57459
550 1 -11.8188 -3.87804 8.73089 -4.60176
551 1 -11.8488 -1.12485 5.74742 -4.56612
552 1 -10.5757 -5.13787 4.44716 -4.61292
553 1 -10.6694 -2.35355 7.26576 -4.56058
554 1 -8.10665 -5.06206 7.31155 -4.57295
555 1 -7.82859 -2.57424 4.61055 -4.59781
556 1 -9.38455 -3.72651 5.88856 -4.616
557 1 -9.20364 -1.21468 8.61955 -4.57746
558 1 -6.6425 -4.06226 8.83679 -4.55408
559 1 -6.52784 -1.18112 5.92537 -4.59039
560 1 -5.1676 -5.29705 4.26426 -4.52796
561 1 -5.51075 -2.71838 7.34826 -4.53383
562 1 -2.74632 -5.05798 7.20157 -4.55386
563 1 -2.77233 -2.32377 4.61825 -4.56217
564 1 -4.14218 -3.73135 5.79956 -4.58657
565 1 -4.06725 -1.32275 8.71984 -4.57014
566 1 -1.41843 -3.78175 8.72912 -4.58155
567 1 -1.29856 -1.0596 5.85889 -4.56988
568 1 -0.177642 -5.02889 4.4088 -4.5791
569 1 -0.182526 -2.45133 7.35684 -4.59289
570 1 2.615 -4.89171 7.26176 -4.59818
571 1 2.65418 -2.47703 4.40175 -4.60344
572 1 1.20848 -3.64168 5.86812 -4.59641
573 1 1.29577 -1.22194 8.82089 -4.59344
574 1 3.90662 -3.62886 8.67275 -4.53604
575 1 3.87834 -1.22189 5.92904 -4.567
576 1 5.25634 -5.03878 4.54883 -4.58956
577 1 5.34128 -2.50604 7.26995 -4.60802
578 1 8.13959 -5.41862 7.06987 -4.59716
579 1 7.7817 -2.55273 4.29934 -4.60534
580 1 6.69588 -3.89223 5.96196 -4.56065
581 1 6.76289 -1.22828 8.64265 -4.6235
582 1 9.38398 -4.13189 8.6431 -4.58445
583 1 9.27949 -1.2597 5.67562 -4.58369
584 1 10.5968 -5.02997 4.47141 -4.58967
585 1 10.5066 -2.68889 7.13357 -4.59284
586 1 13.3866 -5.18166 7.26 -4.55124
587 1 13.4697 -2.44252 4.59335 -4.60191
588 1 12.0433 -3.80982 5.82313 -4.60446
589 1 11.8078 -1.43173 8.54965 -4.56588
590 1 14.7838 -3.90595 8.6173 -4.5451
591 1 14.8455 -1.11578 5.94283 -4.56235
592 1 16.3461 -5.29483 4.34662 -4.44342
593 1 16.2559 -2.76034 6.96843 -4.28606
594 1 18.4685 -5.09289 7.71448 -3.48897
595 1 19.0447 -2.45562 3.89206 -4.34518
596 1 17.9123 -3.88587 5.52049 -4.97866
597 1 17.1944 -1.2414 8.68286 -4.44015
598 1 19.1717 -2.28794 9.59344 -4.57218
599 1 19.655 -0.470763 5.21484 -4.31779
600 1 -19.8823 -0.246207 5.50226 -4.013
601 1 -17.873 0.490148 7.89835 -4.43388
602 1 -18.2537 2.94243 5.08599 -4.60999
603 1 -19.4592 1.79275 6.77902 -4.54525
604 1 -19.1038 3.7758 8.23046 -4.20443
605 1 -16.6887 1.9426 9.11212 -4.5645
606 1 -17.3886 4.51633 6.50716 -4.91456
607 1 -15.9468 0.171554 4.5974 -4.34009
608 1 -15.7627 3.04504 7.37084 -4.35731
609 1 -13.12 0.237143 7.22026 -4.61
610 1 -13.1624 2.92177 4.6076 -4.62868
611 1 -14.6273 1.5942 5.9592 -4.59023
612 1 -14.3373 4.10885 8.85518 -4.61318
613 1 -11.8695 1.48486 8.7421 -4.61196
614 1 -11.7325 4.1379 6.01841 -4.59937
615 1 -10.4507 0.236715 4.3769 -4.62369
616 1 -10.4101 2.78338 7.40872 -4.5781
617 1 -7.93716 0.197196 7.25748 -4.61237
618 1 -8.04474 2.89591 4.29584 -4.57016
619 1 -9.17545 1.56941 5.82908 -4.5752
620 1 -9.09191 4.08775 8.78658 -4.61098
621 1 -6.44896 1.35367 8.6649 -4.6142
622 1 -6.59704 4.02352 5.98079 -4.58308
623 1 -5.37405 0.169839 4.43676 -4.55657
624 1 -5.17607 2.67286 7.24491 -4.57456
625 1 -2.60758 0.0893809 7.37752 -4.57412
626 1 -2.54729 2.65277 4.46393 -4.59121
627 1 -3.89655 1.36787 5.8401 -4.61525
628 1 -3.95778 4.0332 8.66265 -4.58325
629 1 -1.3173 1.27973 8.8974 -4.54637
630 1 -1.30295 3.97167 5.99627 -4.57885
631 1 0.164101 0.0899488 4.40924 -4.59428
632 1 -0.0119695 2.53883 7.46588 -4.58156
633 1 2.62101 0.131264 7.36557 -4.63321
634 1 2.7514 2.86167 4.48749 -4.58795
635 1 1.36952 1.52116 5.88437 -4.58676
636 1 1.37089 4.05297 8.6138 -4.58851
637 1 4.08678 1.55517 8.52893 -4.56793
638 1 4.08075 4.33954 5.74164 -4.58828
639 1 5.28892 0.205619 4.43287 -4.55806
640 1 5.39738 2.89015 7.20189 -4.5955
641 1 8.09038 0.0532778 7.24146 -4.60614
642 1 7.82531 2.86113 4.488 -4.60126
643 1 6.6475 1.45753 5.90718 -4.59263
644 1 6.72018 4.12448 8.66698 -4.58594
645 1 9.36333 1.45714 8.70408 -4.61107
646 1 9.24805 4.04282 5.90778 -4.60906
647 1 10.5541 0.324267 4.56105 -4.60978
648 1 10.6673 2.99963 7.39915 -4.57609
649 1 13.118 0.0460532 7.25122 -4.55578
650 1 13.1842 2.83491 4.37684 -4.56055
651 1 11.9012 1.70537 5.88445 -4.53494
652 1 12.0134 4.27758 8.84764 -4.60449
653 1 14.3841 1.23449 8.85157 -4.55801
654 1 14.4593 4.30868 5.77335 -4.5424
655 1 15.6085 0.218721 4.19188 -4.55574
656 1 15.315 2.68592 7.25712 -4.55797
657 1 18.0724 -0.0676238 6.84026 -4.63676
658 1 18.1393 2.59054 4.08516 -4.51666
659 1 16.8419 1.54111 5.73544 -4.63954
660 1 16.897 3.9363 8.36446 -4.60153
661 1 19.4382 1.57556 7.89552 -4.54577
662 1 19.6695 3.90361 5.18026 -4.5288
663 1 20.7482 1.6969 5.81045 -4.10678
664 1 -19.4652 6.02974 8.43342 -4.3487
665 1 -18.2439 7.97294 4.96438 -3.57556
666 1 -19.1728 6.03927 5.95491 -4.41745
667 1 -17.2887 7.01799 8.55378 -4.59624
668 1 -17.0009 9.84203 5.98058 -4.62852
669 1 -16.1188 5.3966 4.75899 -4.39714
670 1 -15.7112 8.29654 7.18897 -4.55188
671 1 -13.2664 5.39919 7.23547 -4.58909
672 1 -13.3006 8.00909 4.15441 -4.49653
673 1 -14.5515 6.78935 5.90326 -4.55406
674 1 -14.3703 9.48501 8.67051 -4.6658
675 1 -11.8527 6.61201 8.59182 -4.6124
676 1 -12.0186 9.26625 5.57139 -4.48997
677 1 -10.7331 5.56413 4.48594 -4.5214
678 1 -10.6349 8.05341 7.10003 -4.61261
679 1 -7.83028 5.4248 7.37059 -4.58007
680 1 -7.9024 8.08872 4.46603 -4.59043
681 1 -9.15603 6.59206 5.86754 -4.57356
682 1 -9.28658 9.28753 8.50224 -4.53782
683 1 -6.48027 6.68463 8.87238 -4.57125
684 1 -6.48846 9.408 5.92342 -4.58921
685 1 -5.38461 5.342 4.50463 -4.60547
686 1 -5.22715 8.07356 7.41564 -4.62835
687 1 -2.67904 5.52642 7.29702 -4.60009
688 1 -2.63029 8.11512 4.50734 -4.59352
689 1 -4.01386 6.78371 5.85544 -4.61481
690 1 -3.71442 9.30003 8.76478 -4.56992
691 1 -1.16206 6.75573 8.54672 -4.58255
692 1 -1.08795 9.44724 5.68773 -4.60283
693 1 -0.0525982 5.21573 4.48365 -4.58127
694 1 0.161093 8.13649 7.22577 -4.5785
695 1 2.70433 5.43844 7.22913 -4.5314
696 1 2.72781 8.04476 4.46401 -4.55709
697 1 1.45176 6.65712 5.71734 -4.56033
698 1 1.46051 9.37095 8.80511 -4.60595
699 1 3.93596 6.75778 8.53356 -4.51233
700 1 4.06164 9.58473 5.7527 -4.56935
701 1 5.52996 5.65832 4.4264 -4.59815
702 1 5.41064 8.1555 7.30742 -4.55698
703 1 7.933 5.59024 7.17059 -4.60481
704 1 8.01305 8.43126 4.3756 -4.57927
705 1 6.71793 7.097 5.75758 -4.56268
706 1 6.78534 9.38939 8.68712 -4.60504
707 1 9.42603 6.84365 8.43616 -4.55824
708 1 9.46605 9.69289 5.76487 -4.54907
709 1 10.4447 5.55023 4.48947 -4.59049
710 1 10.6888 8.5662 7.34446 -4.32151
711 1 13.1124 5.66617 7.28813 -4.61282
712 1 13.0569 7.92999 4.37993 -4.32448
713 1 11.6162 6.89081 5.96108 -4.54923
714 1 12.1374 9.99147 8.70136 -4.86007
715 1 14.5571 6.98568 8.65621 -4.42863
716 1 14.4134 9.00329 5.82323 -4.42313
717 1 15.626 5.81297 4.29853 -4.20013
718 1 16.0627 8.57849 7.47478 -4.63451
719 1 17.8309 4.92737 6.40549 -4.2455
720 1 19.1776 7.25385 4.6981 -4.03
721 1 17.0189 7.16787 5.7641 -5.24409
722 1 17.6419 9.78534 9.00354 -4.13306
723 1 19.11 6.80723 7.06648 -4.14918
724 1 -16.7629 11.6655 7.60664 -3.66246
725 1 -15.8887 10.7857 4.05629 -4.54227
726 1 -15.6696 13.3827 6.25404 -4.51817
727 1 -12.8497 10.5845 7.29423 -4.50187
728 1 -12.6911 12.9519 4.81965 -4.10248
729 1 -14.354 11.5742 5.75345 -4.68827
730 1 -14.2256 14.8062 7.42802 -4.11062
731 1 -11.5635 12.1019 8.59289 -4.53781
732 1 -12.0309 14.9403 6.24681 -5.38536
733 1 -10.4611 10.4213 4.33414 -4.6333
734 1 -10.3828 13.385 7.1939 -4.35451
735 1 -7.94855 10.7143 7.09092 -4.62263
736 1 -7.96378 13.4218 4.07712 -4.57611
737 1 -9.2319 11.9931 5.61077 -4.56474
738 1 -9.01451 14.8795 8.3723 -4.61029
739 1 -6.69507 12.0156 8.6048 -4.58199
740 1 -6.66562 14.8215 5.47808 -4.59422
741 1 -5.31518 10.8802 4.45548 -4.59738
742 1 -5.5632 13.4441 7.07708 -4.57773
743 1 -2.58657 10.5205 7.20522 -4.5726
744 1 -2.61491 13.3267 4.5094 -4.6089
745 1 -3.91372 12.0943 5.97439 -4.60956
746 1 -4.12544 14.5383 8.69131 -4.49265