ITEM: TIMESTEP
398000
ITEM: NUMBER OF ATOMS
4050
ITEM: BOX BOUNDS ss ss pp
-2.0370393082950645e+01 2.0125588200773578e+01
-2.0110331407335192e+01 2.0257130256231562e+01
-5.4038450000000013e+00 5.9713844999999999e+01
ITEM: ATOMS id type x y z c_peratom
1 1 -11.2569 -14.2676 -2.86242 -4.15402
2 1 -7.51191 -17.4233 -5.35109 -4.18748
3 1 -8.58103 -16.3514 -1.24134 -4.53404
4 1 -7.21501 -18.1974 -1.65492 -3.63394
5 1 -5.80954 -16.2628 -4.263 -4.96739
6 1 -5.01892 -17.718 -2.54475 -4.29448
7 1 -2.36458 -17.1608 -5.68499 -4.67539
8 1 -4.31387 -18.2089 -4.79669 -4.18266
9 1 -3.47658 -16.5453 -0.963505 -4.36165
10 1 -0.737723 -18.9791 -0.882226 -4.36323
11 1 -1.50335 -15.7652 -4.0941 -4.50947
12 1 0.23975 -18.7546 -4.01234 -4.04931
13 1 -0.462192 -17.0436 -2.35821 -4.51614
14 1 2.93699 -17.4812 59.7104 -4.5363
15 1 2.50235 -19.343 -3.93121 -4.3091
16 1 1.01274 -15.9462 -1.01534 -4.54981
17 1 3.10196 -18.8848 -1.68989 -4.26051
18 1 3.81748 -15.975 -3.80299 -4.65622
19 1 4.98817 -17.7061 -2.74441 -4.47617
20 1 6.51295 -18.042 -4.58028 -4.31017
21 1 8.94893 -17.041 -1.61023 -4.40157
22 1 5.87203 -16.3038 -0.997384 -4.56947
23 1 8.45571 -16.8039 -3.90642 -4.21542
24 1 10.3977 -15.3602 -0.898459 -4.63232
25 1 -14.3887 -11.9381 -3.89236 -3.88107
26 1 -14.5481 -13.3302 -1.29818 -3.84865
27 1 -12.8491 -14.9429 -1.42949 -4.33093
28 1 -12.2135 -13.55 58.2837 -4.3953
29 1 -12.5826 -13.231 -4.55099 -4.44699
30 1 -14.2234 -10.9696 -1.79457 -4.43881
31 1 -11.2151 -13.6999 -0.408478 -4.88521
32 1 -11.0401 -11.204 -4.24561 -4.52148
33 1 -8.55538 -15.4566 58.9317 -4.11598
34 1 -9.67099 -12.5659 -2.9282 -4.44134
35 1 -7.20984 -14.9087 -2.67654 -4.36398
36 1 -7.01026 -12.1578 59.3768 -4.5108
37 1 -8.21101 -13.7935 -4.50327 -4.44836
38 1 -8.70138 -11.1525 -1.04743 -4.323
39 1 -6.09533 -13.5012 -1.1208 -4.50132
40 1 -5.90652 -10.8925 -4.09288 -4.43321
41 1 -4.61839 -14.6575 59.3299 -4.31775
42 1 -4.80184 -12.1532 -2.50406 -4.50729
43 1 -2.85796 -14.7929 -2.37294 -4.38182
44 1 -2.06496 -12.1753 59.4069 -4.44095
45 1 -3.51782 -13.3482 -4.16045 -4.44178
46 1 -3.51965 -11.0154 -0.851124 -4.51806
47 1 -1.21823 -13.436 -1.15619 -4.52666
48 1 -1.13679 -10.9632 -3.86363 -4.47204
49 1 0.273388 -15.0422 59.6968 -4.53725
50 1 0.270647 -12.0854 -2.47033 -4.45827
51 1 2.29858 -14.6792 -2.50776 -4.53746
52 1 2.84285 -12.2214 59.5022 -4.49232
53 1 1.25331 -13.3002 -4.17311 -4.48622
54 1 1.34562 -10.7153 -0.701013 -4.44757
55 1 3.69433 -13.5437 -0.926714 -4.55165
56 1 3.84807 -10.8697 -3.86513 -4.48433
57 1 4.92279 -14.6759 -5.42731 -4.60061
58 1 5.09924 -12.231 -2.38765 -4.49262
59 1 7.46361 -15.2118 -2.35751 -4.97242
60 1 7.65407 -12.197 59.734 -4.34941
61 1 6.26965 -13.5804 -3.86507 -4.37142
62 1 6.27655 -11.0202 -0.453624 -4.45096
63 1 8.70508 -13.7378 -0.741817 -4.3976
64 1 8.41563 -11.1095 -3.31806 -4.51066
65 1 9.73246 -15.4655 -5.41578 -4.1548
66 1 10.0089 -12.2404 -1.98807 -4.33458
67 1 12.0465 -14.6237 -2.48467 -4.24354
68 1 11.4369 -11.6916 -4.8531 -4.41706
69 1 10.3621 -13.6868 -3.91124 -4.86649
70 1 10.8673 -11.3803 0.0299758 -4.43848
71 1 13.8115 -13.2848 -1.40558 -4.12196
72 1 13.4599 -11.0176 -2.38371 -4.9045
73 1 15.4433 -12.2713 -2.84961 -4.08502
74 1 15.6587 -10.3105 -1.44183 -3.99749
75 1 -17.126 -7.74205 58.6886 -4.06249
76 1 -18.1664 -5.95858 -0.336363 -4.14169
77 1 -15.6722 -9.08355 -0.889989 -4.27952
78 1 -16.3799 -6.55455 -4.16836 -4.21692
79 1 -14.3622 -10.5155 59.3713 -4.3531
80 1 -14.8231 -7.60077 -2.51037 -4.44796
81 1 -12.1666 -10.04 -2.47262 -4.48199
82 1 -12.1378 -7.53965 59.5915 -4.54636
83 1 -13.4556 -8.8437 -4.05869 -4.55974
84 1 -13.3011 -6.38329 -1.05564 -4.47212
85 1 -10.9724 -8.73309 -0.646579 -4.43783
86 1 -10.985 -6.10134 -3.94215 -4.49583
87 1 -9.45913 -10.0945 59.5868 -4.43413
88 1 -9.79436 -7.44734 -2.15908 -4.43398
89 1 -7.33612 -9.86377 -2.42988 -4.52279
90 1 -7.15396 -7.46041 -5.58802 -4.50677
91 1 -8.5841 -8.57088 -3.97446 -4.49487
92 1 -8.44136 -6.01979 -0.844476 -4.49631
93 1 -6.21966 -8.42949 -0.73592 -4.42927
94 1 -5.90825 -6.12243 -3.96312 -4.50848
95 1 -4.44451 -9.86103 59.4965 -4.46987
96 1 -4.73967 -7.19337 -2.29247 -4.40374
97 1 -2.31768 -9.66515 -2.22461 -4.41326
98 1 -2.10577 -6.99732 59.5087 -4.42649
99 1 -3.35046 -8.4356 -4.03399 -4.40376
100 1 -3.48456 -5.85114 -0.687436 -4.44388
101 1 -1.27208 -8.47399 -0.478077 -4.48173
102 1 -0.889124 -6.00323 -3.67351 -4.41055
103 1 0.23555 -9.762 59.6354 -4.4833
104 1 0.15341 -7.32399 -2.02648 -4.41516
105 1 2.67806 -9.55618 -2.30259 -4.45008
106 1 2.80939 -7.16212 -5.35179 -4.41961
107 1 1.35928 -8.36651 -3.8744 -4.48406
108 1 1.27853 -6.01081 -0.387926 -4.46895
109 1 3.84623 -8.59857 -0.475454 -4.42654
110 1 4.03112 -5.97834 -3.51121 -4.47728
111 1 5.21115 -9.71652 -5.52403 -4.4069
112 1 5.21954 -7.23341 -1.91629 -4.4452
113 1 7.55018 -9.48024 -1.7742 -4.43349
114 1 7.70276 -7.21309 -5.06969 -4.45669
115 1 6.32635 -8.52184 -3.59016 -4.3815
116 1 6.2677 -6.03484 -0.105641 -4.38995
117 1 8.75449 -8.50685 0.12002 -4.43475
118 1 8.58578 -6.06565 -3.11666 -4.41787
119 1 9.96617 -9.92881 -4.56789 -4.43442
120 1 9.95012 -7.32966 -1.57575 -4.47952
121 1 12.0805 -9.62887 -1.01214 -4.42268
122 1 11.9822 -7.2924 -4.66565 -4.45134
123 1 11.2011 -8.69197 -2.99934 -4.42191
124 1 11.0696 -6.18565 0.213205 -4.41165
125 1 13.561 -8.28555 0.224166 -4.54686
126 1 13.1654 -5.95922 -3.09822 -4.63688
127 1 14.0031 -9.719 -4.32078 -4.48982
128 1 14.6229 -7.34263 -1.81367 -4.6171
129 1 16.3208 -6.49754 -4.68781 -4.35425
130 1 15.921 -8.76901 -3.25482 -4.34421
131 1 15.8197 -5.48639 -0.871203 -4.49215
132 1 18.1139 -4.93774 -4.66026 -3.9259
133 1 -17.8222 -5.22054 -2.68992 -4.15583
134 1 -17.2065 -2.31986 -5.32862 -4.98158
135 1 -18.5034 -2.93969 -3.37415 -4.21082
136 1 -17.2941 -1.92031 -1.69387 -4.59145
137 1 -16.1899 -4.75288 -0.973916 -4.36107
138 1 -15.9587 -0.648831 -4.23994 -4.60157
139 1 -14.7247 -5.1207 59.9726 -4.57209
140 1 -15.0964 -2.10269 -2.58352 -4.4651
141 1 -12.2577 -4.76299 -2.45169 -4.57017
142 1 -12.3549 -2.0415 59.5864 -4.44131
143 1 -13.5741 -3.47829 -3.92624 -4.48234
144 1 -13.4902 -1.07763 -1.08815 -4.43178
145 1 -11.0805 -3.54464 -0.758091 -4.50606
146 1 -10.8622 -1.07124 -3.99623 -4.47738
147 1 -9.83354 -4.79305 59.5744 -4.52354
148 1 -9.7831 -2.37178 -2.37349 -4.48492
149 1 -7.32627 -4.84143 -2.52069 -4.52433
150 1 -7.07215 -2.30827 59.501 -4.45195
151 1 -8.48327 -3.52496 -4.04059 -4.54386
152 1 -8.53639 -1.04432 -0.828898 -4.56017
153 1 -5.95707 -3.62601 -1.02709 -4.47754
154 1 -6.02309 -0.79072 -4.04045 -4.49111
155 1 -4.75705 -4.65123 59.4743 -4.41865
156 1 -4.74275 -2.01628 -2.44246 -4.53894
157 1 -2.2152 -4.705 -2.33968 -4.45573
158 1 -2.14152 -2.19358 59.705 -4.46345
159 1 -3.47072 -3.43409 -3.92696 -4.52801
160 1 -3.55725 -0.986648 -0.677181 -4.50189
161 1 -1.21534 -3.56961 -0.489996 -4.48507
162 1 -1.11071 -1.07469 -3.55047 -4.46023
163 1 0.242933 -4.74194 59.759 -4.47021
164 1 0.185483 -2.3098 -1.9188 -4.47371
165 1 2.60445 -4.74821 -2.07689 -4.38695
166 1 2.78899 -2.20814 -5.20713 -4.50271
167 1 1.39854 -3.40934 -3.79623 -4.42272
168 1 1.35579 -0.94554 -0.35884 -4.49989
169 1 3.72755 -3.77417 -0.0533335 -4.37964
170 1 3.96125 -1.10589 -3.38346 -4.45563
171 1 5.0636 -4.46649 -5.01679 -4.40036
172 1 4.98783 -2.3702 -1.71048 -4.46488
173 1 7.51669 -4.55928 -1.63575 -4.46502
174 1 7.63459 -1.98733 -4.80796 -4.43237
175 1 6.4263 -3.35601 -3.33044 -4.45758
176 1 6.24324 -1.08417 -0.157731 -4.55184
177 1 8.79643 -3.48908 0.0607393 -4.4758
178 1 8.81754 -0.831093 -3.13038 -4.42803
179 1 9.697 -4.70373 -4.83105 -4.44178
180 1 10.0489 -2.18173 -1.54002 -4.42275
181 1 12.1436 -4.81259 -1.34767 -4.44239
182 1 12.0838 -2.46364 -4.71302 -4.40814
183 1 10.9279 -3.74053 -3.07238 -4.39552
184 1 11.217 -1.41039 0.32548 -4.30639
185 1 14.1111 -4.08385 -0.300518 -4.46641
186 1 13.0454 -1.25257 -2.8576 -4.4554
187 1 14.5664 -4.94239 -4.696 -4.51896
188 1 14.8089 -2.19872 -1.63705 -4.44938
189 1 17.1606 -4.15414 -2.61413 -4.61025
190 1 16.9238 -1.75565 -5.17842 -4.74138
191 1 15.5255 -2.99923 -3.77021 -4.67182
192 1 16.0516 -1.04702 0.16499 -4.22469
193 1 18.361 -2.2891 -1.64597 -3.76346
194 1 18.1151 -0.285384 -3.79647 -3.72373
195 1 -19.2359 -1.03388 -4.64223 -4.32976
196 1 -18.0065 0.249848 -1.04409 -4.29124
197 1 -17.7011 2.55959 -5.21701 -4.28572
198 1 -17.7771 0.669269 -3.63397 -4.32846
199 1 -17.6349 4.34011 0.618834 -4.33786
200 1 -16.0517 1.39853 -0.445702 -4.48966
201 1 -16.2511 3.70066 -3.6612 -4.31769
202 1 -14.5547 0.33919 59.1438 -4.57225
203 1 -14.994 2.0614 -2.61431 -4.43704
204 1 -12.2307 0.225826 -2.60675 -4.49452
205 1 -12.1906 2.78785 59.1591 -4.54225
206 1 -13.3648 1.54991 -4.3532 -4.38461
207 1 -13.7758 3.56844 -1.36735 -4.40921
208 1 -11.0324 1.43502 -0.937995 -4.54667
209 1 -10.9341 3.86807 -4.21309 -4.43231
210 1 -9.89955 0.116289 59.3277 -4.42923
211 1 -9.74866 2.61697 -2.56895 -4.48908
212 1 -7.30891 0.314531 -2.37301 -4.45123
213 1 -7.28664 2.53106 59.3989 -4.46769
214 1 -8.5237 1.23531 -4.11853 -4.44565
215 1 -8.61752 3.90697 -0.891433 -4.42761
216 1 -6.23188 1.71082 -0.745492 -4.43854
217 1 -6.14905 3.95109 -4.16295 -4.49913
218 1 -4.58306 0.411913 59.553 -4.46159
219 1 -4.89127 2.98353 -2.44427 -4.4408
220 1 -2.39798 0.459967 -2.21179 -4.50639
221 1 -2.21623 2.667 59.524 -4.44068
222 1 -3.54705 1.58621 -3.86421 -4.41132
223 1 -3.65716 4.14078 -0.753715 -4.46063
224 1 -1.02476 1.62246 -0.623688 -4.51222
225 1 -1.01536 3.88307 -3.85547 -4.48574
226 1 0.196741 0.155701 59.8482 -4.44678
227 1 0.30144 2.92236 -2.15292 -4.43196
228 1 2.50419 0.219873 -2.05637 -4.56796
229 1 2.71526 2.85813 -5.14018 -4.49867
230 1 1.28244 1.55336 -3.68791 -4.48524
231 1 1.38205 4.18805 -0.364218 -4.43973
232 1 3.7067 1.59911 -0.555856 -4.4807
233 1 3.98859 4.22226 -3.58046 -4.41283
234 1 5.13555 0.442652 -4.92638 -4.4541
235 1 5.06121 3.0245 -1.8013 -4.50682
236 1 7.42636 0.403965 -1.59547 -4.47327
237 1 7.49497 3.12156 -4.86087 -4.33068
238 1 6.39837 1.62659 -3.31109 -4.44386
239 1 6.29621 4.05888 -0.0440553 -4.45377
240 1 8.69298 1.26068 0.245298 -4.46755
241 1 8.74805 4.19535 -2.90388 -4.41982
242 1 10.0045 0.72099 -4.74724 -4.35006
243 1 9.76233 2.64031 -1.38765 -4.50782
244 1 12.1764 0.22032 -1.15343 -4.33851
245 1 12.1893 3.59078 -4.15504 -4.88608
246 1 11.3488 1.72875 -2.913 -4.25345
247 1 10.9061 3.73 0.509889 -4.45581
248 1 13.3525 1.20096 0.663596 -4.50092
249 1 13.6621 4.06831 -2.35283 -4.55491
250 1 14.1561 0.0679738 -4.50348 -4.41769
251 1 14.5202 2.3787 -0.992299 -4.34831
252 1 17.2815 -0.134937 -1.58125 -4.82553
253 1 16.0766 2.82487 -4.0082 -4.37034
254 1 15.3171 1.0091 -2.69624 -4.29849
255 1 16.1073 3.91136 0.0060413 -4.91186
256 1 18.8068 0.744656 0.435894 -3.99528
257 1 17.8531 4.42171 -4.00125 -4.23509
258 1 18.1644 2.03691 -4.63186 -4.3696
259 1 -17.4044 4.83583 -1.80591 -4.11791
260 1 -16.8467 7.97827 58.1136 -4.32869
261 1 -17.2484 6.585 -5.216 -4.13515
262 1 -16.2058 6.83852 -1.39885 -4.32589
263 1 -16.311 8.69526 -4.57861 -4.11452
264 1 -15.5512 5.06724 59.407 -4.93196
265 1 -14.7596 7.6973 -3.02331 -4.50592
266 1 -12.6129 4.81829 -3.01356 -4.47934
267 1 -12.4615 7.33546 59.2884 -4.52201
268 1 -13.9168 6.1542 -4.50283 -4.29957
269 1 -13.219 8.80528 -1.69833 -4.50087
270 1 -11.1403 6.02985 -1.36377 -4.39281
271 1 -10.982 8.65075 -4.52035 -4.53856
272 1 -9.81578 5.05242 59.0639 -4.53155
273 1 -9.91798 7.32935 -2.95687 -4.49237
274 1 -7.51542 5.05137 -2.66147 -4.39243
275 1 -7.05221 7.64972 59.1401 -4.54858
276 1 -8.41909 6.34648 -4.54068 -4.50001
277 1 -8.25122 8.44909 -1.5058 -4.48209
278 1 -6.04661 6.18818 -1.1243 -4.46172
279 1 -5.64727 8.88002 -4.42458 -4.52022
280 1 -4.73934 5.1675 59.3711 -4.45205
281 1 -4.76127 7.64275 -2.58776 -4.4789
282 1 -2.37347 5.27314 -2.45352 -4.48201
283 1 -2.25096 7.76323 59.5078 -4.45147
284 1 -3.51709 6.42021 -4.14945 -4.5065
285 1 -3.29571 8.84227 -1.04968 -4.50233
286 1 -0.998903 6.40305 -0.849361 -4.4188
287 1 -0.747756 8.90587 -4.12591 -4.38714
288 1 0.176635 5.32018 -5.41559 -4.51092
289 1 0.416195 7.79678 -2.1848 -3.98473
290 1 2.67213 5.42253 -1.99353 -4.18073
291 1 2.49144 7.73901 59.1608 -3.72092
292 1 1.53379 6.71116 -3.96436 -4.33328
293 1 1.45639 8.85636 0.260161 -4.2851
294 1 3.83239 6.34161 0.122807 -4.37385
295 1 4.11331 9.7686 -2.14372 -4.43698
296 1 5.42266 5.76797 -5.11908 -3.89266
297 1 5.25686 7.96611 -0.884897 -4.53785
298 1 7.65803 5.52637 -1.31552 -4.59593
299 1 8.39609 8.6518 58.9145 -3.34904
300 1 6.48561 7.07126 -2.84153 -4.30186
301 1 6.62503 9.32508 0.570992 -4.41144
302 1 9.00518 6.84366 0.286303 -4.32011
303 1 8.26891 8.55859 -3.24827 -3.95003
304 1 10.4553 5.35241 -4.29748 -4.19897
305 1 9.95891 7.89101 -1.66429 -4.4531
306 1 12.0661 5.0891 -0.964505 -4.58337
307 1 12.5276 8.18285 58.005 -4.87736
308 1 11.6793 6.65076 -2.61876 -4.35083
309 1 11.2948 9.04436 1.71544 -4.44403
310 1 13.4019 5.88409 0.88306 -4.606
311 1 11.816 10.2824 58.8768 -4.03541
312 1 13.513 5.04837 59.5531 -4.32981
313 1 14.7361 7.14234 -0.627248 -4.17072
314 1 16.9231 5.12492 -1.86584 -3.79214
315 1 15.1186 6.765 -5.53896 -4.15613
316 1 15.0529 5.96486 -2.85258 -4.22579
317 1 16.1135 8.27006 1.59157 -4.0886
318 1 18.0962 5.02969 0.800105 -3.81373
319 1 -15.0097 12.8338 -0.119656 -4.1537
320 1 -14.86 10.2337 59.3945 -4.54232
321 1 -14.4755 13.1847 -2.48344 -4.15016
322 1 -11.9593 10.0929 -3.06862 -4.57281
323 1 -12.5676 12.5998 59.2984 -4.63469
324 1 -13.6557 11.4896 -4.03269 -4.4757
325 1 -12.9731 13.8796 -0.76028 -4.87338
326 1 -10.3493 11.1777 -1.68323 -4.45663
327 1 -11.598 14.1089 -4.34032 -4.6004
328 1 -9.70816 10.0724 59.1453 -4.57856
329 1 -9.78757 12.8509 -3.26968 -4.43817
330 1 -7.1233 9.98952 -3.03674 -4.5673
331 1 -7.18081 12.3875 58.7612 -4.52395
332 1 -8.41279 11.348 -4.54881 -4.51707
333 1 -8.41559 13.7685 -1.71173 -4.40807
334 1 -5.59772 11.1294 -1.63723 -4.49538
335 1 -5.64442 13.6536 -4.99469 -4.39922
336 1 -4.50763 10.2567 59.0829 -4.47229
337 1 -4.60077 12.6012 -3.18366 -4.47979
338 1 -1.89114 10.1824 -2.59958 -4.29306
339 1 -1.97769 12.4319 59.1854 -4.58397
340 1 -3.16335 11.1855 -4.37087 -4.52437
341 1 -2.97997 13.231 -1.65996 -4.28145
342 1 -0.739566 11.0525 -0.494593 -4.42452
343 1 -0.460899 13.4847 -4.52235 -3.96235
344 1 0.40502 9.88172 59.0012 -3.71197
345 1 0.47856 12.5643 -1.88817 -3.99711
346 1 2.75722 10.6386 -0.404551 -4.54671
347 1 3.59368 13.0927 57.4369 -4.07011
348 1 2.6305 11.7127 -2.45464 -4.45473
349 1 1.29911 13.5401 0.118314 -4.45988
350 1 3.9163 11.5053 1.37674 -4.57296
351 1 4.32328 13.2863 -1.79888 -4.36732
352 1 5.39685 10.7582 57.5664 -3.98945
353 1 5.56849 12.3021 0.0425847 -4.37242
354 1 7.7294 10.2034 -1.41839 -4.39
355 1 7.08374 12.2773 56.9818 -4.60931
356 1 5.7969 11.3658 -2.19069 -4.43253
357 1 6.21969 14.4306 1.05897 -4.41399
358 1 8.6363 11.9425 1.72554 -4.66217
359 1 7.99124 13.7322 58.685 -4.45777
360 1 9.90703 10.0585 57.3072 -4.90453
361 1 8.76227 12.2187 -0.661801 -4.35684
362 1 11.295 9.72291 -0.612865 -4.95372
363 1 11.4753 11.9814 57.225 -4.20311
364 1 10.8636 11.8334 -1.66659 -4.40344
365 1 10.3108 13.4734 1.9237 -4.61486
366 1 13.23 10.3697 2.04435 -4.60851
367 1 12.5884 12.6638 -0.288943 -3.64491
368 1 14.0465 10.1135 57.7646 -4.1433
369 1 13.637 10.5568 -0.307208 -4.3408
370 1 13.0924 8.5265 -1.66663 -4.12664
371 1 -13.1088 15.099 -2.72372 -3.88348
372 1 -11.6003 15.8809 -0.373302 -3.85621
373 1 -8.87986 15.7905 58.5969 -4.49701
374 1 -7.15698 14.813 -3.52158 -4.56961
375 1 -7.41036 17.4148 57.9075 -4.13979
376 1 -7.87319 16.7863 -4.53555 -4.20615
377 1 -5.68247 15.877 -2.09614 -4.66901
378 1 -5.79365 17.4023 59.7476 -4.36378
379 1 -4.79576 15.4706 58.7844 -4.94031
380 1 -4.26225 17.2315 -3.45352 -4.4558
381 1 -1.93052 14.7691 -3.06751 -4.42145
382 1 -1.62266 17.5758 58.9741 -4.01684
383 1 -2.87838 15.9631 -4.94808 -4.37887
384 1 -4.65875 18.6614 -1.6334 -3.68446
385 1 -1.70861 16.0997 -1.12425 -4.43054
386 1 -0.379683 18.3927 -4.09882 -4.39017
387 1 0.587199 14.3091 58.5633 -3.52906
388 1 -0.116187 17.4877 -1.8529 -4.66765
389 1 2.85431 14.9377 -0.820498 -4.5561
390 1 3.14723 17.3964 -2.84598 -4.49979
391 1 1.39131 15.7778 -2.52141 -4.51991
392 1 0.69602 18.5665 0.0243088 -4.50773
393 1 3.30516 16.3563 0.997644 -4.64608
394 1 2.61289 18.9332 -1.17721 -4.00603
395 1 4.90611 14.7825 56.7383 -4.64802
396 1 4.5687 18.124 0.0099844 -4.52096
397 1 6.1797 16.6862 59.0772 -4.5999
398 1 7.8056 17.9627 57.761 -4.24644
399 1 5.8139 14.3977 58.8082 -4.2149
400 1 4.20918 19.3707 2.06063 -3.57996
401 1 7.35595 16.2396 2.14437 -4.40564
402 1 8.66991 15.0116 56.8572 -4.40137
403 1 10.6117 13.8635 -0.450313 -4.45062
404 1 8.48952 16.0258 59.057 -4.41755
405 1 1.92372 19.0751 -3.94035 -4.04933
406 1 -12.1885 -15.7432 0.689212 -4.29521
407 1 -7.24606 -17.3218 0.481431 -3.6522
408 1 -8.75921 -16.0109 5.27651 -3.57205
409 1 -6.07388 -18.324 5.87101 -4.04102
410 1 -5.9806 -16.3193 2.06259 -4.51966
411 1 -4.75732 -17.5403 3.71876 -4.40216
412 1 -2.62792 -18.2569 0.399284 -4.0578
413 1 -2.7857 -18.5892 2.79115 -4.04011
414 1 -3.19 -16.0508 4.73696 -4.49059
415 1 -1.33343 -19.0328 4.64247 -4.15254
416 1 -1.16121 -16.8732 1.83793 -5.2553
417 1 1.01092 -20.0321 -2.16268 -4.18111
418 1 0.434717 -17.8528 3.57752 -4.1351
419 1 2.38712 -17.4273 0.121556 -4.52659
420 1 0.536271 -18.5715 1.18047 -4.19463
421 1 1.19251 -15.8619 4.73107 -4.4466
422 1 4.23996 -18.603 5.4815 -4.52894
423 1 3.79935 -16.3291 1.75791 -4.51214
424 1 5.14004 -17.6128 3.41836 -4.49208
425 1 7.44106 -17.651 0.0403554 -4.17389
426 1 7.59573 -17.5268 2.90816 -4.01678
427 1 5.6927 -15.823 4.82389 -4.71149
428 1 8.14259 -15.9309 1.40774 -4.63112
429 1 12.0333 -14.2862 7.3714 -4.24969
430 1 -16.6378 -9.60671 2.30803 -4.32034
431 1 -15.3521 -11.6319 2.53419 -4.19087
432 1 -12.8229 -14.3277 2.56343 -4.32526
433 1 -12.4035 -12.5175 1.20299 -4.37632
434 1 -14.6249 -13.4387 1.12653 -4.34887
435 1 -13.905 -11.408 4.48162 -4.97956
436 1 -11.4551 -13.7906 4.57175 -4.4796
437 1 -10.9097 -11.1319 2.44089 -4.54569
438 1 -9.84351 -15.3458 0.636722 -4.28188
439 1 -9.66996 -12.6132 3.80192 -4.57023
440 1 -7.49551 -15.0602 3.43823 -4.6103
441 1 -7.40877 -12.2935 0.45646 -4.48352
442 1 -8.69298 -13.6327 1.93706 -4.48474
443 1 -8.77129 -11.1539 5.52777 -4.46376
444 1 -6.39213 -13.6037 5.03438 -4.48864
445 1 -6.13123 -11.222 2.26878 -4.48401
446 1 -4.81589 -15.0354 0.399471 -4.51067
447 1 -4.76751 -12.4452 3.57304 -4.43391
448 1 -1.95174 -14.7454 3.16439 -4.15867
449 1 -2.1566 -12.2621 0.647334 -4.52293
450 1 -3.65794 -13.6657 1.94028 -4.58119
451 1 -3.93333 -11.0208 5.36505 -4.43793
452 1 -1.304 -13.3788 5.21865 -4.45932
453 1 -1.28421 -11.0481 2.52215 -4.47571
454 1 -0.270677 -14.9541 0.435701 -4.14657
455 1 0.246668 -12.2796 3.84941 -4.4519
456 1 2.55888 -14.8716 3.16378 -4.53493
457 1 2.58126 -12.1706 0.744168 -4.49653
458 1 0.99504 -13.4857 2.02849 -4.47499
459 1 1.25967 -11.3514 5.9132 -4.34044
460 1 3.99871 -14.0743 5.05292 -4.43927
461 1 3.67206 -11.1129 2.75927 -4.43314
462 1 5.07743 -14.7312 0.579496 -4.47796
463 1 5.20994 -12.3368 4.1615 -4.47139
464 1 7.6398 -15.2949 3.62795 -4.51535
465 1 7.64898 -12.3123 1.04899 -4.32472
466 1 6.2788 -13.6906 2.46647 -4.50523
467 1 6.0283 -11.0892 6.20448 -4.34397
468 1 8.73072 -13.1998 6.66777 -3.69535
469 1 8.67262 -11.3207 3.13067 -4.32413
470 1 10.5663 -15.9215 1.39549 -3.73317
471 1 9.97419 -12.5017 4.80972 -4.65582
472 1 11.9894 -13.6932 4.76805 -4.41191
473 1 12.8121 -12.7765 0.821222 -4.59504
474 1 11.9075 -14.3564 2.45564 -3.6606
475 1 10.9611 -10.9441 6.29678 -4.56447
476 1 12.4105 -12.015 7.65076 -4.68345
477 1 13.8083 -11.259 2.31589 -3.63532
478 1 13.687 -11.9472 4.6281 -4.46602
479 1 14.6167 -12.282 6.99392 -4.29667
480 1 -16.9906 -7.75874 0.672886 -4.33504
481 1 -18.2508 -4.90152 6.74736 -4.34021
482 1 -16.178 -8.69506 4.49295 -4.45302
483 1 -15.764 -6.2502 2.02141 -4.68668
484 1 -14.5565 -9.78755 1.14035 -4.50001
485 1 -14.5476 -7.19907 3.7796 -4.64032
486 1 -12.2512 -9.77509 4.0067 -4.38302
487 1 -11.9274 -7.12373 0.746598 -4.44625
488 1 -13.1667 -8.39112 2.31137 -4.64612
489 1 -13.04 -6.04327 5.39299 -4.54757
490 1 -11.183 -8.56276 5.71604 -4.47062
491 1 -10.7339 -5.99034 2.48578 -4.49548
492 1 -9.68647 -10.0017 0.875917 -4.42337
493 1 -9.74108 -7.46827 4.13203 -4.43452
494 1 -7.39275 -9.87666 3.95219 -4.44458
495 1 -7.32715 -7.11241 0.958764 -4.48569
496 1 -8.56024 -8.57981 2.32127 -4.47609
497 1 -8.67899 -6.07234 5.69168 -4.48287
498 1 -6.22478 -8.62277 5.67233 -4.52328
499 1 -5.75439 -6.01356 2.45875 -4.43832
500 1 -4.73987 -9.89794 0.766731 -4.43431
501 1 -4.82216 -7.3684 4.32282 -4.43633
502 1 -2.44787 -9.82747 4.08135 -4.53021
503 1 -2.39297 -7.12474 1.14123 -4.45111
504 1 -3.75614 -8.59177 2.59731 -4.48554
505 1 -3.50621 -6.28636 5.99162 -4.41717
506 1 -1.28993 -8.62774 5.81835 -4.39913
507 1 -1.02573 -6.05805 2.77183 -4.49942
508 1 -0.0183599 -9.72623 1.09614 -4.49858
509 1 0.0350307 -7.24783 4.3615 -4.41071
510 1 2.47839 -9.86448 4.44463 -4.37383
511 1 2.60955 -7.28041 1.12467 -4.41837
512 1 1.34316 -8.52003 2.72115 -4.46286
513 1 1.30349 -6.1547 6.18847 -4.43052
514 1 3.43585 -8.79081 6.19974 -4.39763
515 1 3.51289 -6.09392 3.16792 -4.45027
516 1 5.01396 -9.91548 1.28978 -4.44262
517 1 4.7714 -7.54086 4.60571 -4.50047
518 1 7.4156 -9.76697 4.67156 -4.45106
519 1 7.46909 -7.08451 1.60497 -4.43397
520 1 6.22071 -8.56142 2.96829 -4.50026
521 1 5.7829 -6.10824 6.32009 -4.51004
522 1 8.45058 -8.43952 6.32405 -4.5306
523 1 8.66443 -6.04553 3.55286 -4.44596
524 1 9.95838 -9.94166 1.66659 -4.45257
525 1 9.98767 -7.37948 5.00899 -4.51206
526 1 12.6725 -9.82589 4.94599 -4.5884
527 1 12.3253 -7.20453 1.98901 -4.4136
528 1 11.1705 -8.81661 3.41059 -4.44663
529 1 11.0388 -6.06577 6.77447 -4.55276
530 1 13.6866 -8.3659 6.49092 -4.47595
531 1 13.3417 -5.98447 3.74038 -4.37365
532 1 15.1017 -9.60881 1.19861 -4.44152
533 1 14.9576 -7.10657 4.86807 -4.5192
534 1 16.0509 -5.85699 1.46979 -4.50658
535 1 15.6694 -7.90753 2.68241 -3.54869
536 1 16.2797 -6.11308 6.71615 -3.82946
537 1 17.7168 -4.61061 2.41013 -4.34328
538 1 -17.284 -5.07094 3.43647 -4.5302
539 1 -16.681 -2.91076 0.386876 -4.31542
540 1 -18.3127 -4.03341 1.52603 -4.28628
541 1 -18.6299 -2.13738 2.92632 -4.0152
542 1 -15.7806 -3.71751 4.68611 -4.58169
543 1 -16.4914 -1.2863 2.16013 -5.27241
544 1 -14.4068 -5.04784 0.544198 -4.41695
545 1 -14.5604 -2.09732 3.51454 -4.22826
546 1 -12.0881 -4.62114 3.75894 -4.52107
547 1 -12.29 -2.17871 0.643435 -4.5082
548 1 -13.4678 -3.5243 2.13239 -4.45436
549 1 -13.3781 -1.37885 5.40002 -4.36863
550 1 -10.686 -3.46553 5.41752 -4.42006
551 1 -10.9502 -1.00063 2.25584 -4.47372
552 1 -9.63574 -4.64328 0.744632 -4.50117
553 1 -9.56214 -2.09245 3.93711 -4.45181
554 1 -7.29093 -4.9576 3.93193 -4.50099
555 1 -7.08214 -2.29405 0.537155 -4.46271
556 1 -8.27825 -3.49042 2.35013 -4.45806
557 1 -8.45344 -0.919669 5.65108 -4.46153
558 1 -5.90211 -3.73027 5.51043 -4.49808
559 1 -6.04066 -1.03057 2.30472 -4.42089
560 1 -4.70207 -4.59443 0.81425 -4.38275
561 1 -4.82178 -2.1617 4.10226 -4.4731
562 1 -2.34561 -4.80282 4.19646 -4.38635
563 1 -2.43334 -2.15491 0.999489 -4.48562
564 1 -3.60052 -3.45121 2.62961 -4.46172
565 1 -3.60752 -1.02463 5.83492 -4.42097
566 1 -1.20719 -3.69052 6.04523 -4.42115
567 1 -1.11396 -0.882297 2.57722 -4.45036
568 1 0.103624 -4.66395 1.26253 -4.45984
569 1 -0.238516 -2.20585 4.42473 -4.45824
570 1 2.31617 -4.6823 4.68927 -4.46528
571 1 2.55791 -2.30678 1.27222 -4.48844
572 1 1.21119 -3.37798 2.96468 -4.47366
573 1 1.16005 -0.969356 5.97297 -4.49838
574 1 3.65082 -3.58108 6.23449 -4.48133
575 1 3.79113 -1.1298 2.8494 -4.44872
576 1 4.97479 -4.99975 1.59355 -4.47235
577 1 4.95502 -2.26784 4.54286 -4.44474
578 1 7.36432 -4.78245 5.00845 -4.5097
579 1 7.32783 -2.29079 1.52898 -4.46747
580 1 6.21702 -3.64211 3.14537 -4.49499
581 1 6.075 -0.966446 6.28512 -4.43247
582 1 8.69261 -3.558 6.56291 -4.44286
583 1 8.56056 -1.12535 3.31641 -4.46567
584 1 9.86096 -4.8754 1.82198 -4.38331
585 1 9.7419 -2.31352 5.06042 -4.39897
586 1 12.2867 -4.66547 5.35277 -4.554
587 1 12.4394 -2.7159 2.10598 -4.27979
588 1 11.0076 -3.7142 3.58913 -4.53133
589 1 10.9896 -1.26753 6.81982 -4.46323
590 1 13.666 -3.38504 6.73621 -4.49825
591 1 13.2958 -1.2568 3.68231 -4.57708
592 1 14.2568 -4.3027 2.17035 -4.99377
593 1 14.9283 -2.05149 5.20873 -4.49336
594 1 17.0385 -4.77522 4.7172 -3.43182
595 1 17.8679 -2.51471 0.820662 -4.23294
596 1 16.0563 -3.08982 3.36337 -4.42001
597 1 16.2837 -0.304281 6.30527 -4.32663
598 1 18.1856 -1.12121 7.39822 -4.43072
599 1 18.7463 -0.711049 2.33123 -4.28018
600 1 -18.4849 -0.221281 1.40378 -4.03192
601 1 -16.7602 0.23951 4.12581 -4.47703
602 1 -16.6417 2.449 1.56835 -4.62124
603 1 -18.2992 1.55916 3.02392 -4.54708
604 1 -17.6375 3.47076 4.50379 -4.47456
605 1 -15.3971 1.53782 5.62093 -4.60322
606 1 -15.7845 4.00344 3.11379 -4.55971
607 1 -14.7234 -0.20728 0.724568 -4.32669
608 1 -14.1161 2.48842 3.90149 -4.44925
609 1 -12.1648 0.00436661 3.89601 -4.42633
610 1 -12.4283 2.74804 0.446693 -4.353
611 1 -13.3181 1.05255 2.12295 -4.34806
612 1 -12.9547 3.80113 5.50154 -4.53934
613 1 -10.8853 1.14141 5.43651 -4.38816
614 1 -11.3882 3.86479 2.22414 -4.3002
615 1 -9.71879 0.410931 0.74178 -4.47968
616 1 -10.0155 2.83754 4.00229 -4.45302
617 1 -7.19587 0.398288 3.93215 -4.39551
618 1 -7.38006 2.89935 0.88212 -4.45303
619 1 -8.599 1.64464 2.46984 -4.53541
620 1 -8.38309 3.85211 5.54592 -4.42653
621 1 -5.86218 1.50038 5.74101 -4.40939
622 1 -6.02136 4.11997 2.47066 -4.48551
623 1 -4.93184 0.413317 0.758719 -4.541
624 1 -4.83585 2.76723 4.11367 -4.39193
625 1 -2.40189 0.226278 4.22057 -4.41149
626 1 -2.35567 2.96062 0.916367 -4.48609
627 1 -3.49317 1.52277 2.47695 -4.44234
628 1 -3.52815 3.99845 5.87138 -4.42053
629 1 -1.24772 1.5209 5.95502 -4.44568
630 1 -0.922905 3.99225 2.57101 -4.47727
631 1 0.13067 0.599628 1.1097 -4.43014
632 1 0.121589 2.80112 4.44439 -4.437
633 1 2.60509 0.229537 4.53506 -4.43624
634 1 2.61896 2.76235 1.13694 -4.39128
635 1 1.41902 1.59269 2.87722 -4.42918
636 1 1.41641 3.94924 6.15524 -4.45135
637 1 3.72608 1.3529 6.30023 -4.41201
638 1 3.95923 4.05101 2.91252 -4.46732
639 1 4.88454 0.243749 1.22502 -4.43628
640 1 4.91714 2.82055 4.6834 -4.40253
641 1 7.2175 0.414658 4.72213 -4.40977
642 1 7.32285 2.77992 1.55933 -4.4648
643 1 6.02399 1.56164 3.01003 -4.42663
644 1 6.14614 4.06356 6.31539 -4.54493
645 1 8.55639 1.26769 6.60132 -4.45133
646 1 8.35847 4.00852 3.40338 -4.41571
647 1 9.93742 -0.0558273 1.7151 -4.48056
648 1 9.60752 2.73607 5.04848 -4.43929
649 1 12.0526 0.147608 5.19937 -4.47625
650 1 12.2161 2.64879 2.22035 -4.51291
651 1 10.7363 1.29796 3.48487 -4.52129
652 1 10.9097 3.80264 6.8376 -4.45361
653 1 13.2962 1.27715 6.8196 -4.49206
654 1 13.6777 3.84912 3.88258 -4.40125
655 1 14.7171 -0.196138 2.07822 -4.50428
656 1 14.7754 2.30864 5.25848 -4.44853
657 1 17.4543 -0.108301 4.23149 -4.53657
658 1 17.0256 2.09822 1.2905 -4.50299
659 1 15.8902 1.45111 3.29033 -4.56473
660 1 16.3551 3.56704 6.73328 -4.3134
661 1 18.8623 1.62963 5.15632 -4.31592
662 1 18.487 3.3769 2.38286 -4.57514
663 1 19.7954 1.4083 2.81221 -4.07168
664 1 -17.8421 5.77713 4.70188 -4.46863
665 1 -16.3131 7.59485 0.864587 -4.54237
666 1 -17.1111 5.95514 2.4306 -4.21296
667 1 -15.6299 6.34661 5.47554 -4.59864
668 1 -15.1857 9.65915 1.55438 -3.67086
669 1 -15.4326 4.80796 -0.280261 -4.8374
670 1 -14.0471 6.83061 3.67604 -4.4219
671 1 -12.2505 5.2958 3.87093 -4.54658
672 1 -12.3863 7.29446 -0.00459089 -4.50578
673 1 -14.2059 6.4899 1.25304 -4.2522
674 1 -12.652 8.45773 4.79539 -4.39691
675 1 -10.627 6.11482 5.32547 -4.40106
676 1 -10.8586 8.44165 1.43699 -4.26172
677 1 -10.0895 5.0722 0.562414 -4.44468
678 1 -9.80884 7.56707 3.51682 -4.45589
679 1 -7.26454 5.43276 3.98191 -4.42765
680 1 -7.27488 7.47183 0.369487 -4.43151
681 1 -8.56742 6.3113 2.03425 -4.42077
682 1 -8.71265 9.20283 4.78503 -4.22674
683 1 -6.17734 6.72206 5.64085 -4.47541
684 1 -5.77109 8.46475 1.91819 -4.38136
685 1 -4.85174 5.47464 0.822403 -4.42743
686 1 -4.68639 7.74282 4.03475 -4.27696
687 1 -2.27222 5.16949 4.12814 -4.2666
688 1 -2.06133 7.85104 0.768477 -4.2694
689 1 -3.2972 6.53207 2.3425 -4.37925
690 1 -3.7839 9.164 5.77464 -4.42635
691 1 -1.18597 6.57447 6.12208 -4.42643
692 1 -1.1894 8.8283 2.98771 -4.46086
693 1 0.133969 5.5378 1.23023 -4.33885
694 1 0.103205 7.8797 4.71576 -4.40034
695 1 2.54402 5.23108 4.41766 -4.46434
696 1 2.77603 7.72639 1.77327 -4.53566
697 1 1.18926 6.59267 3.08601 -4.51045
698 1 1.06289 8.91437 6.69998 -4.52349
699 1 3.59532 6.45587 6.21155 -4.48207
700 1 3.68325 8.89608 3.80905 -4.40652
701 1 5.33059 5.49521 1.67381 -4.46089
702 1 5.13638 7.95006 5.35062 -4.50276
703 1 7.58151 5.47465 5.12475 -4.49868
704 1 7.66081 7.84494 2.10589 -4.33214
705 1 6.23586 6.73051 3.56012 -4.40147
706 1 6.34524 9.21079 7.1239 -4.43653
707 1 8.78763 6.65131 6.92515 -4.35638
708 1 8.50342 8.89222 4.17806 -4.54682
709 1 9.74152 5.27709 1.89667 -4.41324
710 1 10.1003 7.87481 5.38736 -4.40257
711 1 12.3628 5.10592 5.54735 -4.48293
712 1 12.4115 7.03487 2.61633 -4.46234
713 1 10.7882 6.03214 3.98054 -4.53447
714 1 11.7354 9.19021 8.16067 -4.44185
715 1 13.4934 6.47831 7.23112 -4.34444
716 1 13.4117 8.23479 4.43744 -4.24473
717 1 14.9829 4.56274 2.04125 -4.38295
718 1 15.095 7.72336 6.00254 -4.7738
719 1 17.7349 3.75171 4.67876 -4.28833
720 1 18.0064 6.89835 2.21462 -4.42257
721 1 15.7938 6.49107 3.2073 -4.51356
722 1 16.1495 9.00173 7.66424 -3.89044
723 1 17.7794 6.06051 4.54803 -4.22268
724 1 -14.4544 10.7436 3.53489 -4.27499
725 1 -14.3107 10.5143 -0.471356 -4.67172
726 1 -13.7975 12.514 2.04975 -4.4818
727 1 -12.0935 9.89267 2.94957 -4.90623
728 1 -11.0893 12.6085 0.0010189 -4.15283
729 1 -12.5082 11.0652 0.872732 -4.54986
730 1 -11.9808 13.71 3.05006 -4.11422
731 1 -10.4263 10.804 4.40377 -4.45289
732 1 -9.95834 13.969 1.59282 -5.3049
733 1 -9.60674 9.68646 -0.00478033 -4.50932
734 1 -9.3269 11.9518 2.71809 -4.40061
735 1 -6.95065 9.86961 3.31508 -4.52396
736 1 -7.19947 12.2084 -0.241803 -4.50036
737 1 -7.98581 10.6749 1.34164 -4.55465
738 1 -7.79301 12.7781 4.25684 -4.60512
739 1 -5.73562 11.5583 4.54443 -4.35448
740 1 -5.89768 13.5813 1.07279 -4.54529
741 1 -4.69189 10.1135 0.418864 -4.39369