ITEM: TIMESTEP
384000
ITEM: NUMBER OF ATOMS
4050
ITEM: BOX BOUNDS ss ss pp
-2.0360222402682478e+01 2.0343114227010151e+01
-1.9998510235231546e+01 1.9925581056635789e+01
-5.2137600000000006e+00 5.9523759999999996e+01
ITEM: ATOMS id type x y z c_peratom
1 1 -11.0874 -14.2154 -2.61394 -4.19019
2 1 -7.5873 -17.1124 -4.88389 -4.14664
3 1 -8.29034 -16.4047 -0.725815 -4.51545
4 1 -6.67661 -18.0039 -1.17765 -3.67635
5 1 -5.64972 -16.0902 -3.81477 -4.94894
6 1 -4.68483 -17.6852 -2.35167 -4.32199
7 1 -2.37957 -17.3775 59.0844 -4.52669
8 1 -4.63093 -18.1946 -4.82044 -4.0449
9 1 -3.43348 -16.3497 -0.855884 -4.39265
10 1 -0.718569 -18.9395 -0.543268 -4.40605
11 1 -1.56054 -16.1593 -3.77154 -4.46114
12 1 0.0741891 -18.7927 -3.62724 -4.12624
13 1 -0.396576 -17.1582 -2.01805 -4.55704
14 1 2.78184 -17.5127 -5.3354 -4.51188
15 1 2.35035 -19.2876 -3.74202 -4.27049
16 1 1.30063 -16.0854 -0.714095 -4.62673
17 1 2.92959 -18.9552 -1.48076 -4.01547
18 1 3.63898 -16.1129 -3.61203 -4.63078
19 1 5.02947 -17.7399 -2.74546 -4.32893
20 1 6.53594 -17.8623 -4.57468 -4.33084
21 1 9.09946 -16.5304 -1.65881 -4.40236
22 1 5.88917 -16.2261 -1.16905 -4.54294
23 1 8.37781 -16.2886 -3.98794 -4.16572
24 1 10.4136 -14.7674 -0.661286 -4.65515
25 1 -14.6782 -12.0633 -3.62086 -3.8607
26 1 -14.1635 -13.2687 -0.955089 -3.97823
27 1 -12.5789 -15.0067 -1.04728 -4.39606
28 1 -12.3781 -13.3442 58.2194 -4.48024
29 1 -12.702 -13.2408 -4.12768 -4.52167
30 1 -13.9997 -11.0584 -1.47436 -4.0946
31 1 -10.9282 -13.6437 -0.130565 -4.8914
32 1 -11.3025 -11.3255 -3.90386 -4.55443
33 1 -9.22956 -15.4514 59.2326 -4.21219
34 1 -9.49115 -12.4019 -2.67579 -4.39961
35 1 -7.02863 -14.9641 -2.13245 -4.32857
36 1 -7.12123 -12.4768 59.3529 -4.5464
37 1 -8.25586 -13.8889 -4.02952 -4.43755
38 1 -8.49962 -11.2667 -0.617921 -4.32892
39 1 -5.7865 -13.7829 -0.507902 -4.48975
40 1 -6.13057 -10.9548 -3.8031 -4.49303
41 1 -4.45373 -14.864 59.2297 -4.35829
42 1 -5.00199 -12.4148 -2.29714 -4.47871
43 1 -2.42546 -14.6422 -2.21612 -4.4341
44 1 -2.26378 -12.2004 59.3175 -4.51745
45 1 -3.59277 -13.4438 -3.93409 -4.46941
46 1 -3.71785 -10.9995 -0.741876 -4.43509
47 1 -1.19133 -13.6328 -0.517145 -4.49023
48 1 -1.12171 -10.8948 -3.87703 -4.47829
49 1 0.0415635 -15.0819 59.5584 -4.56697
50 1 -0.152364 -12.2881 -2.19797 -4.3692
51 1 2.54553 -14.6757 -2.12641 -4.50538
52 1 2.59499 -12.3679 59.5832 -4.32421
53 1 1.12995 -13.6309 -3.67867 -4.56024
54 1 1.10028 -11.0223 -0.321682 -4.39472
55 1 3.64029 -13.4441 -0.41628 -4.54817
56 1 3.80737 -10.9085 -3.34454 -4.34681
57 1 4.66318 -14.7916 59.542 -4.59672
58 1 5.16149 -12.3088 -1.95421 -4.44369
59 1 7.37391 -14.8561 -2.27384 -4.9697
60 1 7.55973 -12.4153 59.2258 -4.41036
61 1 6.1398 -13.3991 -3.89116 -4.30521
62 1 6.40211 -11.0206 -0.156003 -4.48702
63 1 8.7075 -13.2465 -0.925639 -4.39983
64 1 8.38635 -11.0491 -3.58605 -4.46181
65 1 10.0164 -15.3361 59.2355 -4.18766
66 1 9.97151 -11.8874 -2.13057 -4.21293
67 1 12.1766 -14.2074 -2.29472 -4.20361
68 1 11.5992 -11.6613 -5.17139 -4.39797
69 1 10.5274 -13.4566 -3.97663 -4.87612
70 1 10.9912 -11.1604 -0.120684 -4.43975
71 1 13.8449 -12.8698 -1.19099 -4.10536
72 1 13.3075 -10.9 -2.51137 -4.9834
73 1 15.342 -11.9597 -2.97269 -4.09675
74 1 15.349 -10.0466 -1.56128 -3.89517
75 1 -17.2499 -7.29122 58.8037 -4.11991
76 1 -18.0026 -5.87102 0.142497 -4.21551
77 1 -15.6075 -8.89302 -0.290756 -3.89735
78 1 -16.252 -6.43353 -3.78682 -4.28819
79 1 -14.7616 -10.4562 -5.43343 -4.40314
80 1 -14.8991 -7.63713 -2.12293 -4.42297
81 1 -12.0995 -9.83629 -2.3535 -4.4909
82 1 -12.4769 -7.29512 -5.14773 -4.53903
83 1 -13.8032 -8.91732 -3.85192 -4.53009
84 1 -13.2996 -6.51766 -0.67573 -4.39573
85 1 -10.7679 -8.74736 -0.434192 -4.34491
86 1 -10.988 -6.08841 -3.85376 -4.50135
87 1 -9.7397 -10.0533 59.6932 -4.45063
88 1 -9.88276 -7.31315 -2.15966 -4.50348
89 1 -7.04391 -9.773 -1.95397 -4.47988
90 1 -7.27137 -7.37704 -5.24542 -4.45051
91 1 -8.44757 -8.65736 -3.56081 -4.57284
92 1 -8.43206 -6.18768 -0.653503 -4.50655
93 1 -5.9145 -8.43835 -0.370207 -4.50196
94 1 -5.94742 -6.1755 -3.63975 -4.45077
95 1 -4.63427 -9.76264 59.5118 -4.50789
96 1 -4.63616 -7.23712 -2.01469 -4.37712
97 1 -2.39012 -9.74458 -2.28739 -4.50795
98 1 -2.02496 -7.22854 59.454 -4.41874
99 1 -3.5752 -8.30101 -3.71144 -4.47579
100 1 -3.37551 -6.03248 -0.314352 -4.48636
101 1 -1.11519 -8.52529 -0.577192 -4.37173
102 1 -0.778373 -6.10307 -3.4744 -4.4408
103 1 0.227836 -9.72849 -5.49384 -4.48638
104 1 0.31861 -7.50917 -2.09529 -4.39689
105 1 2.57419 -9.70879 -1.77189 -4.38383
106 1 2.74354 -7.03809 -5.23143 -4.4594
107 1 1.57654 -8.55647 -3.82479 -4.35594
108 1 1.12244 -6.05531 -0.274742 -4.4288
109 1 3.90203 -8.58998 -0.133858 -4.4911
110 1 3.77584 -5.8294 -3.43345 -4.42518
111 1 4.95253 -9.83407 -5.24234 -4.31934
112 1 5.06424 -7.26223 -1.80975 -4.39366
113 1 7.44146 -9.61789 -1.78983 -4.33308
114 1 7.63213 -7.35955 -4.85694 -4.43108
115 1 6.23756 -8.51495 -3.47846 -4.40633
116 1 6.12805 -6.07572 -0.143088 -4.48275
117 1 8.56156 -8.60137 0.141489 -4.49549
118 1 8.44531 -6.07296 -3.01831 -4.35511
119 1 10.092 -9.84755 -4.7037 -4.45194
120 1 9.76968 -7.05334 -1.28993 -4.47545
121 1 12.104 -9.34034 -1.18977 -4.46349
122 1 11.8461 -7.18347 -4.86493 -4.43075
123 1 10.8525 -8.38913 -2.97136 -4.35702
124 1 10.9585 -5.74204 0.215827 -4.43934
125 1 13.6458 -7.93478 0.0566366 -4.59037
126 1 13.1185 -5.90395 -3.33918 -4.61568
127 1 13.9208 -9.56229 -4.43182 -4.49098
128 1 14.7606 -6.9133 -1.84232 -4.5615
129 1 16.3182 -6.60949 -4.59999 -4.4242
130 1 15.8215 -8.59271 -3.31732 -4.47972
131 1 16.0165 -5.14362 -0.980138 -4.5537
132 1 17.9532 -4.87733 -4.73979 -3.75723
133 1 -17.5257 -5.18154 -2.27455 -4.14171
134 1 -17.2757 -2.48216 -4.83503 -4.98293
135 1 -18.5402 -2.95886 -2.80178 -4.19603
136 1 -17.1373 -1.92678 -1.24469 -4.63191
137 1 -15.9536 -4.80194 -0.489316 -4.40968
138 1 -15.8174 -0.859747 -3.93344 -4.58701
139 1 -14.9061 -4.98872 -5.07338 -4.58143
140 1 -14.9335 -2.26458 -2.14583 -4.40347
141 1 -12.3586 -5.12451 -2.25923 -4.53569
142 1 -12.4405 -2.45204 59.4194 -4.48989
143 1 -13.7082 -3.67644 -3.58577 -4.478
144 1 -13.3614 -1.20762 -0.557726 -4.42353
145 1 -11.0238 -3.73908 -0.722894 -4.45227
146 1 -11.1263 -1.07902 -3.82825 -4.47975
147 1 -9.58642 -4.7515 59.3224 -4.49892
148 1 -9.74271 -2.55471 -2.42257 -4.46428
149 1 -6.96063 -4.84155 -1.92181 -4.46976
150 1 -7.00759 -2.49518 59.333 -4.47347
151 1 -8.21876 -3.75293 -3.71793 -4.46823
152 1 -8.57071 -1.34678 -0.515381 -4.41066
153 1 -5.93926 -3.53647 -0.304775 -4.45682
154 1 -6.05044 -1.03408 -3.78889 -4.41167
155 1 -4.66021 -4.7347 -5.2193 -4.41941
156 1 -4.75399 -2.33007 -2.01335 -4.43608
157 1 -2.07398 -4.89827 -1.90837 -4.47355
158 1 -2.3002 -2.21084 -5.11627 -4.4076
159 1 -3.34944 -3.63133 -3.51516 -4.49068
160 1 -3.65994 -0.981534 -0.328572 -4.49562
161 1 -1.16787 -3.47145 -0.227635 -4.48364
162 1 -1.24055 -0.89272 -3.4942 -4.51453
163 1 0.141763 -4.68734 -5.15051 -4.37605
164 1 0.0186507 -2.1122 -1.89493 -4.43248
165 1 2.48746 -4.6659 -1.80154 -4.4971
166 1 2.76253 -2.18578 -4.7301 -4.51482
167 1 1.20107 -3.46203 -3.41558 -4.53841
168 1 1.38728 -0.910259 -0.112462 -4.38212
169 1 3.70433 -3.51116 -0.183058 -4.41305
170 1 3.86409 -0.538296 -3.30931 -4.51262
171 1 5.28837 -4.6914 -4.96119 -4.50792
172 1 4.91781 -2.09952 -1.73055 -4.50594
173 1 7.35793 -4.54474 -1.46544 -4.44449
174 1 7.48811 -2.04662 -4.8195 -4.45759
175 1 6.27305 -3.358 -3.24529 -4.46968
176 1 6.21165 -0.953832 0.0199067 -4.42238
177 1 8.39425 -3.42901 0.235526 -4.41425
178 1 8.81798 -0.81744 -3.22948 -4.46592
179 1 9.52059 -4.63404 -4.73218 -4.41193
180 1 9.76888 -2.10038 -1.36333 -4.35053
181 1 12.0596 -4.63375 -1.58542 -4.46377
182 1 12.2358 -2.07671 -4.82242 -4.41566
183 1 10.9238 -3.27631 -3.15307 -4.43641
184 1 11.1509 -1.24564 0.390158 -4.36924
185 1 14.1087 -3.8284 -0.61979 -4.48809
186 1 13.1211 -0.935186 -2.92784 -4.41461
187 1 14.6214 -4.91693 -4.92615 -4.44984
188 1 14.9254 -1.87145 -1.52386 -4.44939
189 1 17.4563 -4.01606 -2.4173 -4.50672
190 1 16.7863 -1.68926 -4.76265 -4.71905
191 1 15.5668 -3.16387 -3.48047 -4.63435
192 1 16.1021 -0.867204 0.245125 -4.30244
193 1 18.4006 -1.9674 -1.72038 -4.07274
194 1 18.3355 -0.457059 -3.51092 -3.92756
195 1 -19.0685 -1.04246 -4.33277 -4.33483
196 1 -17.7609 0.344136 -0.796839 -4.2816
197 1 -17.3663 2.51872 -5.02661 -4.3196
198 1 -17.5247 0.603424 -3.40499 -4.33585
199 1 -17.6638 4.37792 0.718922 -4.32988
200 1 -15.9089 1.37444 -0.0781713 -4.48998
201 1 -16.1517 3.7755 -3.32018 -4.28691
202 1 -14.6045 0.217825 59.1059 -4.52252
203 1 -14.9981 2.06626 -2.1716 -4.45697
204 1 -12.2967 0.15234 -2.18022 -4.44571
205 1 -12.2824 2.55466 59.3066 -4.55405
206 1 -13.5856 1.36364 -3.86778 -4.35906
207 1 -13.6079 3.61871 -1.01779 -4.3366
208 1 -11.0189 1.32282 -0.488778 -4.47595
209 1 -10.9582 3.71148 -3.87154 -4.50807
210 1 -9.65113 0.0835256 59.2349 -4.50766
211 1 -9.86413 2.49439 -2.21111 -4.47169
212 1 -7.42423 0.0868516 -2.07761 -4.46472
213 1 -7.18535 2.73814 59.4476 -4.47347
214 1 -8.51814 1.34294 -3.75174 -4.47486
215 1 -8.53643 3.63407 -0.629621 -4.47564
216 1 -6.19217 1.37472 -0.507099 -4.43738
217 1 -5.82423 4.06698 -3.82036 -4.45633
218 1 -4.73847 0.153196 -5.36281 -4.50239
219 1 -5.05697 2.63285 -2.078 -4.47999
220 1 -2.44664 0.437637 -1.90332 -4.47311
221 1 -2.34531 2.82916 59.5579 -4.51233
222 1 -3.683 1.44762 -3.65155 -4.45992
223 1 -3.65285 3.94693 -0.676236 -4.46804
224 1 -0.938435 1.38206 -0.36139 -4.44521
225 1 -0.927837 4.02953 -3.69211 -4.49115
226 1 0.0399007 0.315428 -5.00418 -4.47409
227 1 0.158928 2.81388 -1.86933 -4.4929
228 1 2.37016 0.477986 -1.76375 -4.42096
229 1 2.76746 3.23671 -4.99503 -4.44666
230 1 1.42206 1.63782 -3.56011 -4.44886
231 1 1.37101 4.14447 -0.295993 -4.50243
232 1 3.64325 1.5734 -0.193479 -4.43609
233 1 4.16334 4.41195 -3.40313 -4.45128
234 1 5.26172 0.495564 -4.93147 -4.42746
235 1 4.99579 2.86432 -1.75473 -4.41206
236 1 7.48371 0.387752 -1.65626 -4.44017
237 1 7.48344 3.15567 -4.999 -4.45537
238 1 6.40587 1.73627 -3.35946 -4.44263
239 1 6.13893 3.82762 0.187673 -4.4365
240 1 8.82842 1.35314 0.0833117 -4.4018
241 1 8.63367 4.2281 -3.20288 -4.37971
242 1 9.97555 0.729402 -4.55148 -4.4069
243 1 9.65117 2.98934 -1.37149 -4.46725
244 1 12.0769 0.318984 -1.15034 -4.39217
245 1 12.2548 3.50432 -4.18011 -4.92384
246 1 11.1754 1.8289 -2.77574 -4.33041
247 1 10.8203 3.84944 0.492986 -4.41917
248 1 13.3152 1.4711 0.586736 -4.519
249 1 13.4938 4.38731 -2.31117 -4.51839
250 1 14.0948 0.51869 -4.51469 -4.42511
251 1 14.5469 2.77558 -1.09955 -4.36401
252 1 17.3234 0.339143 -1.50599 -4.74241
253 1 15.9335 3.05902 -4.14457 -4.4431
254 1 15.4755 1.27422 -2.71938 -4.27842
255 1 16.0137 4.16758 0.0169224 -4.98424
256 1 18.8337 1.07877 0.424588 -4.19335
257 1 17.7483 4.43943 -4.29584 -4.26929
258 1 17.7863 1.91712 -4.94517 -3.95146
259 1 -17.4045 5.00892 -1.59172 -4.13732
260 1 -17.002 8.02595 57.936 -4.32534
261 1 -17.4049 6.58098 -4.83441 -4.06646
262 1 -16.3544 7.05612 -0.842842 -4.26267
263 1 -16.692 8.9009 -4.5628 -4.09422
264 1 -15.4057 5.2144 59.5466 -5.07866
265 1 -15.2459 7.8186 -2.78068 -4.4591
266 1 -12.4474 4.96601 -2.61324 -4.58522
267 1 -12.5787 7.64261 59.2719 -4.58267
268 1 -13.8255 6.35887 -3.97039 -4.33659
269 1 -13.7467 9.05802 -1.37565 -4.52201
270 1 -11.3778 6.29521 -0.999028 -4.54396
271 1 -11.2184 8.81315 -4.04523 -4.52582
272 1 -9.82188 5.05566 59.2431 -4.55378
273 1 -9.99183 7.48128 -2.5448 -4.56543
274 1 -7.39813 4.93895 -2.28728 -4.47425
275 1 -7.54383 7.76252 59.003 -4.50767
276 1 -8.48638 6.37451 -4.0002 -4.49058
277 1 -8.46468 8.56262 -1.185 -4.47769
278 1 -6.15155 6.18082 -0.707963 -4.53722
279 1 -6.06984 8.73419 -4.07632 -4.52369
280 1 -4.96486 5.43991 59.2468 -4.45616
281 1 -4.9631 7.39798 -2.36468 -4.39772
282 1 -2.38157 5.25328 -2.20979 -4.49687
283 1 -2.16399 7.82239 59.2537 -4.4722
284 1 -3.4157 6.57823 -3.96966 -4.46278
285 1 -3.77771 8.62929 -0.578694 -4.53046
286 1 -1.2795 6.45242 -0.493007 -4.42421
287 1 -1.04471 8.92833 -3.74279 -4.47845
288 1 0.346606 5.38981 -5.27065 -4.47052
289 1 0.0905488 7.62516 -2.06967 -4.42964
290 1 2.74226 5.45893 -1.77218 -4.39841
291 1 2.99761 8.05803 -5.21454 -4.02193
292 1 1.62283 6.55962 -3.68783 -4.39268
293 1 1.21265 8.70188 -0.260784 -4.38927
294 1 3.74849 6.51108 0.155472 -4.45874
295 1 4.09856 9.26406 -2.83332 -4.31493
296 1 5.34866 5.84991 -5.00365 -4.11574
297 1 5.0826 7.80942 -1.25591 -4.71852
298 1 7.44107 5.21514 -1.32252 -4.45664
299 1 8.41897 8.52953 58.6094 -3.81781
300 1 6.58631 6.83936 -2.77326 -4.37888
301 1 6.35809 9.16908 0.219009 -4.41038
302 1 8.61249 6.44206 0.485669 -4.32757
303 1 8.21089 8.62536 -3.24169 -4.0789
304 1 10.5308 5.19251 -4.32167 -4.16707
305 1 9.38614 7.80009 -1.40317 -4.45963
306 1 12.0086 5.37431 -0.856083 -4.63069
307 1 12.0581 7.559 57.7488 -4.66082
308 1 11.3147 6.94903 -2.52183 -4.36354
309 1 11.0287 8.84833 1.62823 -4.44575
310 1 13.463 6.19821 0.851368 -4.59294
311 1 11.9737 9.68426 58.7482 -4.07778
312 1 13.5433 5.14685 59.2239 -4.35369
313 1 14.4701 7.56826 -0.803684 -3.95293
314 1 16.7922 5.24445 -2.0767 -3.54606
315 1 15.1333 6.80001 59.3679 -4.19524
316 1 14.7449 6.4041 -2.80037 -4.51292
317 1 15.704 8.2334 1.8199 -3.87226
318 1 17.8485 5.45553 0.745351 -3.57719
319 1 -15.1817 12.9012 0.1577 -4.1588
320 1 -15.0478 10.5155 59.2566 -4.51112
321 1 -14.7336 13.2402 -2.2385 -4.10092
322 1 -12.5285 10.3015 -2.91268 -4.52555
323 1 -12.6321 12.7411 59.0996 -4.69234
324 1 -13.9612 11.7512 -3.91628 -4.36131
325 1 -13.032 13.836 -0.634461 -4.90698
326 1 -10.7418 11.0237 -1.44436 -4.36712
327 1 -11.6132 14.3778 -4.31041 -4.58777
328 1 -10.0466 9.98296 59.0773 -4.53999
329 1 -10.286 12.7368 -3.17005 -4.44775
330 1 -7.63178 10.1101 -2.75682 -4.47557
331 1 -7.29553 12.4926 58.6353 -4.48851
332 1 -8.70316 11.4972 -4.41657 -4.54112
333 1 -8.96472 13.8707 -1.63772 -4.45801
334 1 -6.19388 11.0073 -1.2368 -4.53726
335 1 -6.07566 13.5289 -4.49973 -4.38625
336 1 -4.85027 10.1703 59.1774 -4.44384
337 1 -5.04587 12.5088 -2.6213 -4.60426
338 1 -2.39101 10.0187 -1.99749 -4.47827
339 1 -2.22747 12.6547 59.2686 -4.46897
340 1 -3.56477 11.1336 -3.76995 -4.42503
341 1 -3.31909 13.4749 -1.3508 -4.34943
342 1 -1.18111 11.1878 -0.374319 -4.50866
343 1 -0.746717 13.7507 -4.08607 -4.45812
344 1 0.456276 10.3541 59.7159 -4.31925
345 1 -0.00999335 12.3854 -2.03592 -4.5011
346 1 2.69784 10.2689 -1.26584 -4.65874
347 1 3.65287 13.3561 58.6628 -4.08465
348 1 1.70989 11.3534 -3.09604 -4.56265
349 1 1.25086 13.684 -0.455386 -4.52016
350 1 3.96047 11.6043 0.380591 -4.46605
351 1 3.27472 13.0713 -3.24979 -4.18125
352 1 5.86639 11.0169 58.6495 -3.93769
353 1 4.94972 12.6622 -1.62233 -4.04411
354 1 7.32856 10.225 -1.69806 -4.54426
355 1 7.33431 12.3613 57.5604 -4.56264
356 1 5.61057 10.9987 -3.16628 -4.25753
357 1 6.07711 13.9649 0.751612 -4.06471
358 1 8.14733 11.6208 1.339 -4.58215
359 1 8.59779 14.0316 58.724 -4.48897
360 1 10.0239 9.96164 57.3775 -4.89123
361 1 8.17448 12.3795 -0.883264 -4.41085
362 1 10.8061 9.60633 -0.694166 -4.98001
363 1 11.926 11.6653 56.9621 -4.38218
364 1 10.3289 11.7822 -1.73382 -4.34877
365 1 9.86407 13.1495 1.74966 -4.63252
366 1 12.7953 10.3748 2.00471 -4.58771
367 1 12.1097 12.6226 -0.419963 -3.61985
368 1 13.9386 10.189 57.5968 -4.21772
369 1 13.0164 10.4898 -0.36668 -4.35704
370 1 12.7081 8.72004 -1.95233 -4.28159
371 1 -13.1881 15.0965 -2.70954 -3.80768
372 1 -12.0263 15.9984 -0.2103 -3.94131
373 1 -8.94975 15.6048 58.405 -4.43289
374 1 -7.6465 14.8345 -3.39426 -4.55836
375 1 -7.56044 17.5794 58.1306 -4.36912
376 1 -8.33713 16.8433 -4.41008 -4.34868
377 1 -6.20425 15.6897 -1.78742 -4.69555
378 1 -6.09093 17.6441 -4.68838 -4.20681
379 1 -5.05858 15.447 59.221 -4.86161
380 1 -4.77465 17.3549 -2.7262 -4.43333
381 1 -2.36598 14.9369 -2.83992 -4.49434
382 1 -1.71106 17.9453 58.8804 -4.25668
383 1 -3.16162 16.6255 -4.32595 -4.23856
384 1 -4.8702 18.5549 -0.669721 -4.1303
385 1 -1.61672 16.1657 -0.968643 -4.50946
386 1 -0.302437 18.9597 -4.04162 -4.34513
387 1 0.732661 15.0167 59.2543 -4.20625
388 1 -0.122693 17.4618 -2.2252 -4.57448
389 1 2.8357 14.9564 -1.81201 -4.33537
390 1 3.29515 17.8806 -3.46984 -4.29965
391 1 1.54602 16.2553 -3.45789 -4.96035
392 1 1.03252 18.4805 -0.400473 -4.65747
393 1 3.45082 16.0424 0.145155 -4.51327
394 1 2.9488 19.1999 -1.52739 -4.34086
395 1 4.91514 14.971 57.4152 -4.36192
396 1 4.6507 17.8617 -0.346849 -4.493
397 1 7.76171 17.1814 59.3116 -4.28663
398 1 8.6987 18.0613 57.3398 -4.10628
399 1 6.52934 15.0377 59.1137 -4.32926
400 1 4.03464 18.8345 1.72116 -3.70773
401 1 7.25206 15.7759 1.60035 -4.5626
402 1 9.29142 14.7223 56.5363 -4.55848
403 1 10.0188 13.9327 -0.500015 -4.43987
404 1 9.75964 16.0529 58.4592 -4.41606
405 1 2.03749 19.9492 -3.58915 -4.17747
406 1 -11.615 -15.5518 1.11141 -4.38164
407 1 -7.14957 -17.4046 1.00565 -3.72226
408 1 -8.38303 -15.7379 5.85934 -3.59258
409 1 -5.75544 -18.2482 6.5147 -4.15769
410 1 -5.82271 -16.2455 2.61829 -4.46467
411 1 -4.77701 -17.4061 4.5063 -4.48975
412 1 -2.54313 -17.9479 0.798939 -3.98609
413 1 -3.00398 -18.3708 3.22782 -3.9882
414 1 -3.18638 -15.9649 5.45788 -4.49879
415 1 -1.29487 -18.8986 4.94503 -4.08819
416 1 -1.23328 -16.7087 2.39167 -5.23867
417 1 0.873161 -20.2421 -1.89795 -4.18491
418 1 0.397922 -17.8134 3.75108 -4.21083
419 1 2.45484 -17.6631 0.512781 -4.4947
420 1 0.480263 -18.5778 1.42531 -4.09423
421 1 0.999415 -15.9036 5.05477 -4.41345
422 1 4.36712 -18.468 5.89382 -4.42007
423 1 3.77096 -16.3725 2.21703 -4.4702
424 1 5.15431 -17.6403 3.61389 -4.45461
425 1 7.54223 -17.3994 -0.115719 -4.22859
426 1 7.50452 -17.4434 2.73786 -3.97844
427 1 5.73753 -15.7997 4.94331 -4.71444
428 1 8.23061 -15.7233 1.37031 -4.49765
429 1 12.1258 -14.5544 7.43935 -4.16596
430 1 -16.5955 -9.37708 2.83028 -4.26535
431 1 -15.5308 -11.6871 2.9044 -4.14127
432 1 -12.4884 -14.0822 2.67523 -4.34367
433 1 -12.1983 -12.2165 1.3498 -4.39002
434 1 -14.343 -13.2375 1.41843 -4.37931
435 1 -14.0126 -11.3128 4.81515 -4.96428
436 1 -11.285 -13.8359 4.91336 -4.44706
437 1 -10.7767 -11.1295 2.80343 -4.55546
438 1 -9.33049 -15.1536 0.912623 -4.20425
439 1 -9.63925 -12.4082 4.37498 -4.53976
440 1 -7.11436 -15.0159 4.063 -4.60326
441 1 -7.27637 -12.546 0.920221 -4.49131
442 1 -8.47945 -13.7495 2.652 -4.4569
443 1 -8.62009 -10.8471 5.7615 -4.47031
444 1 -6.11388 -13.4639 5.51657 -4.52608
445 1 -6.08135 -11.2985 2.63551 -4.48954
446 1 -4.48448 -15.1014 0.928575 -4.42212
447 1 -4.58031 -12.2535 4.25475 -4.48349
448 1 -1.87143 -14.8226 3.82019 -4.2367
449 1 -2.54586 -12.2721 0.909204 -4.53286
450 1 -3.53733 -13.7195 2.53186 -4.49733
451 1 -3.68842 -10.8634 5.9548 -4.45341
452 1 -1.408 -13.3364 5.63554 -4.49528
453 1 -1.30388 -11.108 2.61637 -4.5067
454 1 -0.00379209 -15.0757 0.956781 -4.28377
455 1 0.0356066 -12.2802 4.17673 -4.45896
456 1 2.68924 -15.0344 3.76214 -4.54035
457 1 2.33822 -12.3246 1.28912 -4.53273
458 1 1.06538 -13.7572 2.61482 -4.56643
459 1 1.28402 -11.2134 6.07176 -4.30177
460 1 4.13247 -14.0918 5.32449 -4.50823
461 1 3.71482 -11.2285 2.91516 -4.52273
462 1 5.02594 -14.9918 0.704838 -4.52585
463 1 5.2101 -12.3699 4.22977 -4.4536
464 1 7.51744 -15.2173 3.54834 -4.51778
465 1 7.78046 -12.5291 1.14674 -4.41671
466 1 6.07747 -13.6848 2.40728 -4.55347
467 1 6.23498 -11.1627 6.12764 -4.3746
468 1 8.96609 -12.9846 6.57929 -3.64794
469 1 8.61705 -11.3373 3.01473 -4.33316
470 1 10.4546 -15.325 1.66753 -3.65488
471 1 10.2115 -12.1174 4.75076 -4.66894
472 1 11.8908 -13.8381 4.73788 -4.35893
473 1 12.8096 -12.2001 1.02819 -4.47726
474 1 12.2321 -14.0353 2.41677 -3.99907
475 1 11.3634 -10.6102 6.20394 -4.51582
476 1 12.6021 -12.2651 7.45461 -4.66511
477 1 13.7727 -10.9061 2.74726 -4.43482
478 1 13.9414 -12.717 4.43974 -3.75205
479 1 14.7426 -12.3138 6.80793 -4.3366
480 1 -16.7545 -7.66728 1.21822 -4.52105
481 1 -18.2577 -4.78468 7.17246 -4.32948
482 1 -16.3334 -8.75338 5.11282 -4.3192
483 1 -15.516 -6.30401 2.69582 -4.69973
484 1 -14.5802 -9.90262 1.5798 -4.58865
485 1 -14.3283 -7.47999 4.34645 -4.61329
486 1 -12.1426 -9.88137 4.31612 -4.41868
487 1 -11.8378 -7.24321 0.967615 -4.43964
488 1 -13.0343 -8.44934 2.67278 -4.59446
489 1 -13.1196 -6.00751 5.71758 -4.52121
490 1 -11.1289 -8.60983 6.06368 -4.47153
491 1 -10.7213 -5.9785 2.60183 -4.46736
492 1 -9.3964 -9.91622 1.15512 -4.41025
493 1 -9.78546 -7.41262 4.37012 -4.41108
494 1 -7.15236 -9.91231 4.26328 -4.47324
495 1 -7.17915 -7.2047 1.16689 -4.4561
496 1 -8.41388 -8.5245 2.77269 -4.52033
497 1 -8.39379 -6.0626 5.88365 -4.54622
498 1 -6.13968 -8.56205 5.95093 -4.46299
499 1 -5.97423 -6.02136 2.79034 -4.51579
500 1 -4.75528 -9.88622 1.15914 -4.49238
501 1 -4.88119 -7.27823 4.42626 -4.4715
502 1 -2.26152 -9.74745 4.27259 -4.45827
503 1 -2.10534 -7.29521 1.27341 -4.45089
504 1 -3.65576 -8.47682 2.78689 -4.51942
505 1 -3.61279 -6.07811 6.10305 -4.48985
506 1 -1.05675 -8.50933 6.07296 -4.37068
507 1 -1.11934 -5.80918 2.94274 -4.51812
508 1 0.0535886 -9.73296 1.19627 -4.5073
509 1 0.199843 -7.2174 4.38349 -4.4056
510 1 2.4392 -9.86574 4.49788 -4.47809
511 1 2.63838 -7.28587 1.25396 -4.52374
512 1 1.3384 -8.58791 2.76976 -4.47877
513 1 1.1044 -6.01935 6.40821 -4.39675
514 1 3.63218 -8.51287 5.97967 -4.45976
515 1 3.69748 -5.98997 2.9591 -4.47269
516 1 4.98764 -9.96765 1.35964 -4.48894
517 1 4.9698 -7.16547 4.60473 -4.519
518 1 7.46645 -9.78653 4.65568 -4.4607
519 1 7.38417 -7.13051 1.62963 -4.52047
520 1 6.06068 -8.54411 3.04725 -4.54172
521 1 6.1507 -6.08157 6.38285 -4.4897
522 1 8.49956 -8.50596 6.34826 -4.47029
523 1 8.48091 -5.77959 3.34573 -4.51754
524 1 9.95396 -9.81218 1.63716 -4.53626
525 1 9.86248 -7.15531 4.79326 -4.50583
526 1 12.6849 -9.65423 4.42658 -4.49716
527 1 12.2584 -6.96139 1.75567 -4.49199
528 1 11.0457 -8.37875 3.18373 -4.5435
529 1 11.1902 -6.05907 6.41872 -4.54066
530 1 14.0434 -8.5464 6.04608 -4.50995
531 1 13.4148 -5.72623 3.4261 -4.37866
532 1 14.9826 -9.4179 1.2572 -4.07826
533 1 15.0366 -6.93833 4.74089 -4.58107
534 1 16.2499 -5.43831 1.3903 -4.48978
535 1 15.7392 -7.48995 2.50539 -3.72852
536 1 16.525 -5.89286 6.35703 -4.00006
537 1 17.7889 -3.90331 2.40239 -4.42749
538 1 -17.1685 -5.10652 3.89878 -4.59434
539 1 -16.6235 -3.01547 0.750112 -4.32912
540 1 -18.2557 -4.12358 2.00669 -4.40128
541 1 -18.6582 -1.99447 3.1092 -3.7794
542 1 -15.8961 -3.61894 5.14346 -4.60517
543 1 -16.3532 -1.17366 2.44286 -5.31548
544 1 -14.2613 -5.22695 1.08705 -4.42126
545 1 -14.6506 -2.09131 3.95938 -4.21191
546 1 -12.1733 -4.73362 4.03043 -4.44857
547 1 -11.9665 -2.25153 0.834732 -4.42047
548 1 -13.3335 -3.3979 2.37656 -4.48113
549 1 -13.5705 -0.995731 5.93013 -4.40717
550 1 -11.0232 -3.54561 5.76609 -4.50307
551 1 -10.9396 -1.07088 2.64269 -4.40844
552 1 -9.46273 -4.85715 0.921958 -4.4159
553 1 -9.75258 -2.31529 4.24378 -4.37639
554 1 -7.24032 -4.72259 4.31896 -4.45573
555 1 -7.20101 -2.26111 1.16446 -4.48418
556 1 -8.50177 -3.52419 2.58973 -4.45535
557 1 -8.4401 -1.08473 6.15828 -4.34969
558 1 -6.0768 -3.65304 6.04853 -4.42918
559 1 -6.32999 -0.796708 2.85777 -4.43436
560 1 -4.63978 -4.78764 1.27358 -4.51846
561 1 -5.0593 -2.1733 4.43807 -4.50469
562 1 -2.5161 -4.65014 4.52767 -4.4713
563 1 -2.44226 -2.16272 1.35416 -4.47821
564 1 -3.7157 -3.35329 2.94215 -4.50782
565 1 -3.79441 -1.01019 6.09344 -4.48293
566 1 -1.35555 -3.56011 6.26734 -4.46637
567 1 -1.19092 -0.876936 3.00263 -4.48303
568 1 0.143875 -4.59249 1.32352 -4.47717
569 1 -0.124852 -2.26156 4.61045 -4.50101
570 1 2.48171 -4.71912 4.70257 -4.37586
571 1 2.60116 -2.12426 1.5699 -4.43584
572 1 1.25791 -3.38146 3.0138 -4.48107
573 1 1.23547 -1.15296 6.19627 -4.49572
574 1 3.71438 -3.55605 6.31552 -4.48153
575 1 3.70678 -0.799879 3.2541 -4.42937
576 1 4.97916 -4.72378 1.53191 -4.44868
577 1 4.87152 -2.03239 4.80009 -4.48388
578 1 7.3132 -4.58043 4.99317 -4.4749
579 1 7.22913 -2.07062 1.77237 -4.49594
580 1 6.05163 -3.43853 3.27622 -4.46892
581 1 6.2425 -1.03385 6.5449 -4.42864
582 1 8.68636 -3.66796 6.70202 -4.50083
583 1 8.71737 -0.945438 3.27593 -4.44251
584 1 9.72077 -4.51758 1.85967 -4.44448
585 1 9.69965 -2.14775 5.14684 -4.4716
586 1 12.5186 -4.64864 5.26417 -4.45981
587 1 12.3159 -2.46894 2.21593 -4.3061
588 1 10.9672 -3.55688 3.71929 -4.53962
589 1 11.0806 -1.0143 6.71284 -4.4638
590 1 13.755 -3.4293 6.8424 -4.50143
591 1 13.325 -1.0149 3.68769 -4.54103
592 1 14.1849 -4.09092 1.88535 -4.94715
593 1 14.883 -1.93583 5.31972 -4.5064
594 1 17.2061 -4.28586 4.71366 -3.51904
595 1 17.8947 -2.21429 0.67991 -4.32838
596 1 15.8283 -2.89793 3.2862 -4.39497
597 1 16.4606 -0.385112 6.15562 -4.31607
598 1 18.4396 -1.15768 7.12007 -4.42387
599 1 18.7737 -0.546972 2.14609 -4.35857
600 1 -18.4704 -0.186272 1.58895 -4.03317
601 1 -16.8463 0.213679 4.38515 -4.49221
602 1 -16.6322 2.70076 1.88727 -4.6128
603 1 -18.2023 1.69158 3.22137 -4.52569
604 1 -17.812 3.49278 4.90441 -4.36278
605 1 -15.6842 1.48407 6.10746 -4.57995
606 1 -15.8359 4.13555 3.50434 -4.52003
607 1 -14.5242 -0.144894 1.19795 -4.32066
608 1 -14.3503 2.58488 4.4463 -4.46715
609 1 -12.1208 0.149624 4.46179 -4.43933
610 1 -12.2509 2.75081 1.0285 -4.32685
611 1 -13.365 1.27737 2.70153 -4.42718
612 1 -13.0837 3.86067 5.8112 -4.4943
613 1 -10.9016 1.47515 6.04 -4.42638
614 1 -11.1973 4.24893 2.59285 -4.3449
615 1 -9.6818 0.176859 1.05314 -4.46654
616 1 -9.88845 2.95869 4.21817 -4.39926
617 1 -7.54883 0.392869 4.4414 -4.45473
618 1 -7.31728 2.72821 1.17566 -4.45237
619 1 -8.70769 1.53394 2.77849 -4.46545
620 1 -8.50796 3.92934 5.89566 -4.43124
621 1 -6.05626 1.52437 5.98484 -4.34827
622 1 -6.16472 4.16551 2.68194 -4.49613
623 1 -4.84122 0.324733 1.18874 -4.47143
624 1 -4.90106 2.91972 4.17981 -4.35003
625 1 -2.4747 0.268854 4.68314 -4.42396
626 1 -2.30283 2.57881 0.97059 -4.35011
627 1 -3.52928 1.61074 2.75813 -4.38559
628 1 -3.8226 4.0038 6.17138 -4.38788
629 1 -1.17519 1.6338 6.26842 -4.47781
630 1 -1.29365 3.91626 2.8541 -4.29279
631 1 0.2271 0.426048 1.4849 -4.43126
632 1 0.0205428 2.96062 4.58222 -4.37242
633 1 2.44388 0.507398 4.81326 -4.44955
634 1 2.60566 2.949 1.4184 -4.43769
635 1 1.30783 1.74761 3.03224 -4.43412
636 1 1.16239 4.01437 6.46707 -4.4001
637 1 3.69535 1.52402 6.6838 -4.47368
638 1 3.80893 4.00845 3.27499 -4.39147
639 1 4.84671 0.391008 1.45473 -4.40065
640 1 4.92273 2.61964 5.00194 -4.38515
641 1 7.48584 0.33448 4.93843 -4.43379
642 1 7.44556 2.55494 1.76562 -4.44557
643 1 6.06544 1.37308 3.34905 -4.3927
644 1 5.94099 3.877 6.60145 -4.53368
645 1 8.77302 1.27355 6.71113 -4.44803
646 1 8.36524 3.82148 3.55734 -4.47916
647 1 10.0471 0.182102 1.84771 -4.40713
648 1 9.89091 2.86453 5.19411 -4.48981
649 1 12.2996 0.4365 5.19837 -4.48398
650 1 12.3221 2.85718 2.18067 -4.51273
651 1 11.0401 1.53443 3.6454 -4.48685
652 1 11.2159 3.86428 6.85166 -4.45241
653 1 13.764 1.28839 6.8579 -4.45629
654 1 13.7139 3.93441 3.74091 -4.4698
655 1 14.6715 0.0203148 1.96931 -4.53727
656 1 14.9068 2.40988 5.14092 -4.43871
657 1 17.3009 -0.153846 3.98288 -4.57521
658 1 17.0192 2.27527 1.14967 -4.50588
659 1 15.9797 1.54743 3.13946 -4.60006
660 1 16.2562 3.6813 6.53742 -4.33422
661 1 18.7344 1.58201 4.71447 -4.36753
662 1 18.644 3.67759 2.30322 -4.55007
663 1 19.8261 1.56955 2.53231 -4.23636
664 1 -17.9362 5.95555 5.07405 -4.35315
665 1 -16.3056 7.58267 1.40992 -4.58347
666 1 -17.3405 5.75802 2.61218 -4.2789
667 1 -15.7458 6.32411 5.89753 -4.6662
668 1 -15.4866 9.55925 2.25387 -3.60233
669 1 -15.4829 4.92858 -0.11153 -4.86632
670 1 -14.2776 6.85762 4.15382 -4.34271
671 1 -12.3489 5.44831 4.34142 -4.54418
672 1 -12.93 7.55455 0.293278 -4.477
673 1 -14.4202 6.36988 1.64244 -4.30269
674 1 -13.1343 8.62202 5.17717 -4.37769
675 1 -10.5775 6.46335 5.56428 -4.42488
676 1 -11.3015 8.40525 1.99003 -4.21759
677 1 -10.046 5.08647 0.662171 -4.43059
678 1 -9.8337 7.70242 3.60576 -4.45735
679 1 -7.49782 5.30515 4.28447 -4.37959
680 1 -7.45362 7.64258 0.730735 -4.46084
681 1 -8.55703 6.15133 2.25301 -4.46741
682 1 -8.67446 9.23175 5.0449 -4.26829
683 1 -6.28004 6.67052 5.76106 -4.46562
684 1 -5.8116 8.61358 2.12775 -4.48838
685 1 -4.73978 5.22926 1.02442 -4.39332
686 1 -4.92105 7.97849 4.24908 -4.30056
687 1 -2.53213 5.23304 4.55835 -4.41314
688 1 -2.50495 7.65861 1.13317 -4.35544
689 1 -3.63152 6.42275 2.82759 -4.37402
690 1 -4.25147 9.32409 6.07518 -4.31971
691 1 -1.35762 6.38664 6.26012 -4.3706
692 1 -1.58605 8.87651 3.07282 -4.37084
693 1 -0.115155 5.23983 1.12061 -4.39888
694 1 -0.230169 7.57683 4.53343 -4.51308
695 1 2.49913 5.28141 4.88882 -4.37437
696 1 2.2425 7.68964 1.70762 -4.47713
697 1 0.96515 6.17518 3.04227 -4.41372
698 1 0.906631 8.80143 6.29059 -4.3632
699 1 3.53876 6.66 6.52052 -4.50042
700 1 3.61241 8.71737 3.33278 -4.44995
701 1 5.03145 5.19678 1.66832 -4.43273
702 1 4.95402 7.81491 5.06365 -4.37765
703 1 7.23967 5.25833 5.16131 -4.43787
704 1 7.26975 7.81012 2.08114 -4.3529
705 1 5.99678 6.32118 3.46808 -4.43188
706 1 6.01753 8.99774 7.0423 -4.41103
707 1 8.61694 6.38337 6.97496 -4.4021
708 1 8.14975 8.68239 4.11151 -4.59898
709 1 9.6901 5.1278 2.11343 -4.45805
710 1 9.90088 7.70245 5.40073 -4.40146
711 1 12.419 5.1061 5.28959 -4.46535
712 1 12.4225 7.30265 2.72896 -4.46054
713 1 10.7614 6.19046 3.86976 -4.56191
714 1 11.5796 9.01139 8.1161 -4.44528
715 1 13.3923 6.25139 7.14856 -4.3267
716 1 13.3986 8.23266 4.59379 -4.28136
717 1 14.9661 4.98008 2.02777 -4.34833
718 1 14.8658 8.01873 6.45047 -4.7604
719 1 17.6539 3.87002 4.46166 -4.25204
720 1 17.8382 7.2948 2.43544 -4.52388
721 1 15.8423 6.55507 3.46896 -4.55961
722 1 16.591 9.24493 7.59906 -4.07465
723 1 17.9006 6.1726 4.56628 -4.29341
724 1 -14.677 11.1588 3.85024 -4.36194
725 1 -14.8072 10.5422 0.186791 -4.64457
726 1 -13.9848 12.7953 2.31674 -4.50116
727 1 -12.4626 10.17 3.38484 -4.93848
728 1 -11.3329 12.5072 0.283101 -4.1591
729 1 -12.8845 11.0432 1.22153 -4.52888
730 1 -12.3734 13.941 3.62301 -4.08672
731 1 -10.6435 10.7489 4.84419 -4.35838
732 1 -10.4564 14.0636 2.04807 -5.35998
733 1 -9.98699 9.53936 0.298653 -4.51816
734 1 -9.67474 11.9 2.95834 -4.36386
735 1 -7.09042 10.0851 3.2931 -4.46958
736 1 -7.58729 12.5516 -0.161859 -4.54428
737 1 -8.35873 10.8895 1.35368 -4.56159
738 1 -8.06733 12.9088 4.34291 -4.6313
739 1 -5.92109 11.8878 4.53315 -4.36851
740 1 -6.00222 13.8772 1.04598 -4.59741