ITEM: TIMESTEP
274000
ITEM: NUMBER OF ATOMS
4050
ITEM: BOX BOUNDS ss ss pp
-2.0488352055041410e+01 2.0381737869066026e+01
-2.0446537264775309e+01 2.0282610182730217e+01
-3.7202350000000011e+00 5.8030234999999998e+01
ITEM: ATOMS id type x y z c_peratom
1 1 -11.8284 -14.8763 -1.50836 -4.03637
2 1 -7.16536 -17.7969 -2.92639 -4.52084
3 1 -8.73957 -17.0263 0.271406 -4.56042
4 1 -6.96998 -18.5346 0.25685 -3.71452
5 1 -5.79467 -16.0958 -1.98782 -4.67462
6 1 -4.95264 -17.9019 -0.646494 -4.59963
7 1 -2.89985 -17.977 -3.5117 -4.52504
8 1 -4.97615 -19.0185 -2.78338 -4.32108
9 1 -3.5319 -16.7376 0.912728 -4.40148
10 1 -0.700353 -19.0656 1.4025 -4.4703
11 1 -1.61726 -16.4111 -2.19655 -4.39738
12 1 0.101515 -19.2857 -1.75334 -4.69369
13 1 -0.511624 -17.5148 -0.43617 -4.58162
14 1 3.17854 -17.2725 58.1051 -4.52266
15 1 2.08905 -18.2368 -1.90578 -3.9596
16 1 1.36682 -16.3849 0.561893 -4.60869
17 1 3.27394 -19.014 -0.0732459 -4.49352
18 1 4.08215 -15.7959 -2.05455 -4.61097
19 1 5.06513 -17.5115 -1.05506 -4.42199
20 1 6.6485 -18.0748 -2.62463 -4.37689
21 1 9.34631 -17.159 -0.0205393 -4.31508
22 1 6.33204 -16.4156 0.768425 -4.51037
23 1 8.6838 -16.7644 -2.2159 -4.12692
24 1 11.3162 -15.9626 0.49198 -3.72052
25 1 -14.8598 -12.6252 -1.86777 -4.22269
26 1 -14.9866 -13.8917 0.247761 -4.28812
27 1 -13.6204 -15.6918 -0.342253 -4.21528
28 1 -12.2225 -13.0522 57.7102 -4.59796
29 1 -13.5976 -14.4024 -2.84451 -4.26901
30 1 -14.0296 -11.6044 0.17689 -4.21735
31 1 -11.0232 -13.9723 0.595378 -4.83275
32 1 -11.3386 -11.7381 -2.27257 -4.51332
33 1 -9.9512 -15.3756 -3.62669 -4.14401
34 1 -9.72537 -12.6458 -0.862362 -4.38117
35 1 -7.3855 -15.2694 -0.449139 -4.61086
36 1 -7.54506 -12.5271 -3.65133 -4.53354
37 1 -8.5674 -14.19 -2.11445 -4.57862
38 1 -8.71748 -11.5763 0.981708 -4.50183
39 1 -6.02251 -13.9331 0.923802 -4.5082
40 1 -6.43116 -11.1062 -2.17365 -4.52975
41 1 -4.62014 -14.9184 57.9927 -4.50156
42 1 -4.97409 -12.4729 -0.738376 -4.49604
43 1 -2.5234 -15.0631 -0.544073 -4.46714
44 1 -2.25017 -12.5872 57.802 -4.52045
45 1 -3.44509 -13.5454 -2.15547 -4.49525
46 1 -3.73306 -11.2137 0.657514 -4.53419
47 1 -1.1818 -13.5743 0.501612 -4.52325
48 1 -1.03625 -11.0178 -2.53744 -4.51097
49 1 0.0968178 -15.3586 57.9994 -4.46707
50 1 0.173621 -12.2444 -1.01664 -4.51506
51 1 2.5998 -14.7476 -0.611113 -4.5055
52 1 2.67302 -12.5531 57.7998 -4.48029
53 1 1.34757 -13.8573 -2.41617 -4.53035
54 1 1.45361 -11.1644 0.706507 -4.50478
55 1 4.06959 -13.7791 0.956868 -4.54048
56 1 3.83228 -11.4895 -2.1559 -4.47886
57 1 5.2876 -14.8217 58.0194 -4.52019
58 1 5.29293 -12.5555 -0.603294 -4.52136
59 1 7.94693 -15.1575 -0.514937 -4.97869
60 1 8.07969 -12.7796 58.0007 -4.41335
61 1 6.71147 -13.815 -2.1653 -4.35119
62 1 6.61672 -11.2112 0.8834 -4.56705
63 1 9.18971 -13.7447 0.855854 -4.49866
64 1 8.84742 -11.4786 -1.86586 -4.53779
65 1 10.3187 -15.6261 57.9496 -4.14415
66 1 10.4307 -12.3958 -0.513775 -4.28239
67 1 12.6767 -14.5777 -0.831524 -4.37524
68 1 12.1231 -11.8179 -3.42897 -4.37061
69 1 10.9952 -13.7526 -2.41597 -4.86976
70 1 11.4132 -11.0647 1.2825 -4.54982
71 1 14.2578 -13.0578 0.19869 -4.15557
72 1 13.9612 -10.999 -1.03322 -4.90294
73 1 15.9324 -12.2953 -1.3496 -4.07874
74 1 16.2317 -10.21 -0.365827 -4.13643
75 1 -17.4227 -7.59834 57.2585 -4.19774
76 1 -18.8194 -5.93899 1.78631 -4.25581
77 1 -16.2367 -8.75595 1.16183 -3.69765
78 1 -16.7379 -6.67079 -2.20285 -4.28284
79 1 -14.9654 -10.7161 -3.51841 -4.28644
80 1 -15.2201 -7.81589 -0.852549 -4.44511
81 1 -12.4594 -10.2161 -0.950435 -4.50737
82 1 -12.7033 -7.44584 -3.79823 -4.55148
83 1 -13.8368 -8.95056 -2.38292 -4.59562
84 1 -13.9156 -6.77413 0.857006 -4.46852
85 1 -11.2764 -9.07028 0.851996 -4.48815
86 1 -11.641 -6.19148 -2.14777 -4.48929
87 1 -10.2112 -10.1365 58.0756 -4.5578
88 1 -10.2604 -7.42586 -0.532832 -4.5452
89 1 -7.68527 -9.97873 -0.550825 -4.53138
90 1 -7.51106 -7.47964 -3.64991 -4.53129
91 1 -8.95326 -8.60984 -2.1548 -4.53068
92 1 -8.80193 -6.35838 1.03317 -4.52603
93 1 -6.35167 -8.68278 0.951473 -4.58972
94 1 -6.23881 -6.26914 -2.06465 -4.54252
95 1 -5.04406 -9.97558 -3.81546 -4.49873
96 1 -4.90511 -7.56729 -0.600164 -4.55179
97 1 -2.25449 -10.0175 -0.658385 -4.4509
98 1 -2.48966 -7.47797 57.9403 -4.46881
99 1 -3.57265 -8.83357 -2.19512 -4.51035
100 1 -3.76142 -5.96728 0.867274 -4.47253
101 1 -1.33184 -8.64101 0.971882 -4.56819
102 1 -1.02791 -6.28263 -2.19473 -4.51929
103 1 0.386975 -9.67719 -4.01385 -4.49443
104 1 0.113191 -7.48037 -0.533605 -4.54254
105 1 2.97997 -9.91455 -0.566101 -4.52646
106 1 2.86803 -7.425 58.13 -4.51394
107 1 1.46501 -8.75324 -2.06601 -4.45698
108 1 1.28283 -6.1609 1.04184 -4.56731
109 1 4.11275 -8.71668 1.07769 -4.50025
110 1 3.99001 -6.11077 -2.05114 -4.47886
111 1 5.24354 -10.2776 58.0294 -4.5025
112 1 5.1431 -7.42758 -0.623 -4.49348
113 1 7.83711 -9.83467 -0.473685 -4.51918
114 1 7.6476 -7.69589 58.0384 -4.48287
115 1 6.34175 -8.90118 -2.08101 -4.52765
116 1 6.21459 -6.00267 0.999344 -4.49065
117 1 8.907 -8.41606 1.14151 -4.5091
118 1 8.70805 -6.23926 -2.19242 -4.4926
119 1 10.2508 -10.3622 -3.38732 -4.45216
120 1 10.2043 -7.28305 -0.528638 -4.45278
121 1 12.5164 -9.34816 0.0605092 -4.42161
122 1 12.6212 -7.64857 58.205 -4.50269
123 1 11.4033 -8.85436 -1.94467 -4.46651
124 1 11.3546 -6.23209 1.30179 -4.46744
125 1 14.2416 -8.19575 1.13492 -4.54048
126 1 13.7361 -6.10645 -2.25621 -4.61381
127 1 14.7445 -9.95965 -3.16274 -4.44212
128 1 15.2128 -7.15523 -0.752065 -4.6432
129 1 16.5184 -6.74746 -3.75173 -4.5071
130 1 16.3531 -8.64276 -2.11732 -4.47644
131 1 16.5438 -5.41842 0.078214 -4.52745
132 1 18.5396 -5.45548 -3.76714 -3.80592
133 1 -18.2793 -5.39327 -0.709062 -4.08502
134 1 -17.8298 -2.81152 -3.34446 -4.96423
135 1 -19.1549 -3.18718 -1.24414 -4.21166
136 1 -17.6448 -2.11795 0.36257 -4.63898
137 1 -16.6946 -5.07457 1.04389 -4.39858
138 1 -16.3318 -1.12654 -2.2807 -4.54727
139 1 -15.2117 -5.36874 -3.50393 -4.56247
140 1 -15.4277 -2.39049 -0.564866 -4.44818
141 1 -12.924 -5.10804 -0.548775 -4.53825
142 1 -12.8218 -2.73389 -3.54454 -4.56581
143 1 -14.2654 -3.78515 -2.04077 -4.46727
144 1 -14.0267 -1.22173 0.92718 -4.44146
145 1 -11.6044 -3.96738 0.92034 -4.50953
146 1 -11.4277 -1.42592 -2.11142 -4.55019
147 1 -10.2177 -5.05408 58.2142 -4.49955
148 1 -10.2861 -2.65949 -0.458874 -4.59326
149 1 -7.60545 -5.02041 -0.480332 -4.56927
150 1 -7.56844 -2.53353 58.0555 -4.42811
151 1 -8.9731 -3.8504 -2.00604 -4.45818
152 1 -8.91242 -1.14699 0.804488 -4.57933
153 1 -6.15755 -3.82713 1.00152 -4.56211
154 1 -6.41276 -1.20512 -2.16735 -4.58195
155 1 -4.96953 -4.96 58.013 -4.51511
156 1 -5.01313 -2.44442 -0.659224 -4.50165
157 1 -2.32263 -4.95954 -0.810474 -4.51428
158 1 -2.36974 -2.40984 57.8568 -4.51181
159 1 -3.62431 -3.65892 -2.25862 -4.58019
160 1 -3.89674 -1.13847 0.951372 -4.5184
161 1 -1.37767 -3.52279 0.896465 -4.50558
162 1 -1.24595 -1.09204 -2.16724 -4.49619
163 1 0.154605 -4.8625 58.0415 -4.53978
164 1 0.0606595 -2.29042 -0.626269 -4.57015
165 1 2.6003 -5.0398 -0.488888 -4.49389
166 1 2.58632 -2.43108 58.1818 -4.45788
167 1 1.32503 -3.76716 -1.96454 -4.53196
168 1 1.25652 -0.881946 0.911416 -4.47083
169 1 3.64165 -3.54632 1.10946 -4.5433
170 1 3.91217 -1.07507 -1.9599 -4.53312
171 1 5.33299 -4.96211 58.1142 -4.45788
172 1 5.12324 -2.57655 -0.441329 -4.4735
173 1 7.66202 -4.73915 -0.572928 -4.48263
174 1 7.56024 -2.17769 -3.59776 -4.44655
175 1 6.34348 -3.59078 -2.07648 -4.49299
176 1 6.38313 -1.08093 1.03729 -4.56541
177 1 8.83764 -3.42834 1.07996 -4.52038
178 1 8.87858 -1.21154 -1.84233 -4.48779
179 1 9.9724 -4.95888 -3.67893 -4.53438
180 1 10.2778 -2.2987 -0.47073 -4.38184
181 1 12.7285 -5.05404 -0.363596 -4.41725
182 1 12.657 -2.66496 -3.42772 -4.43877
183 1 11.3056 -3.96944 -1.97578 -4.54014
184 1 11.6988 -1.74659 1.50374 -4.32841
185 1 14.5831 -4.25446 0.708068 -4.42419
186 1 13.4611 -1.39197 -1.60175 -4.43265
187 1 15.0928 -4.84533 -3.63593 -4.51281
188 1 15.3101 -2.42395 -0.536559 -4.55562
189 1 18.1691 -4.36141 -1.52129 -4.40796
190 1 17.9828 -2.04729 57.9438 -4.48826
191 1 16.4563 -3.22808 -2.4849 -4.65584
192 1 16.4662 -1.53881 1.32996 -4.34577
193 1 19.1543 -2.37777 -0.305501 -3.98201
194 1 19.2332 -0.649227 -2.11926 -3.91631
195 1 -19.5968 -1.32325 -2.7648 -4.35314
196 1 -18.2909 0.134012 0.712687 -4.4
197 1 -17.9152 2.32561 -3.23566 -4.32589
198 1 -18.1488 0.347256 -1.78389 -4.4222
199 1 -17.8655 4.47143 1.98131 -4.15468
200 1 -16.3969 1.14792 1.4295 -4.57531
201 1 -16.7671 3.55176 -1.54961 -4.38725
202 1 -15.2523 0.0438583 57.7892 -4.58426
203 1 -15.2576 2.09782 -0.458775 -4.48174
204 1 -12.7876 -0.0758834 -0.697226 -4.52694
205 1 -12.6629 2.55928 -3.68047 -4.60056
206 1 -13.9913 1.248 -2.29318 -4.50309
207 1 -13.8975 3.58124 0.800041 -4.53677
208 1 -11.5526 1.30578 0.7284 -4.56814
209 1 -11.4837 3.90752 -2.17513 -4.54051
210 1 -10.1705 -0.183852 57.9888 -4.55977
211 1 -10.0343 2.49438 -0.696693 -4.49384
212 1 -7.67085 0.121233 -0.755135 -4.52601
213 1 -7.6487 2.47073 -3.9767 -4.51007
214 1 -8.83335 1.32679 -2.35598 -4.51331
215 1 -8.81982 3.73832 0.922211 -4.55341
216 1 -6.30437 1.3756 0.798086 -4.5158
217 1 -6.57006 3.7342 -2.17075 -4.5288
218 1 -5.14399 0.101137 58.0492 -4.49703
219 1 -5.08265 2.7613 -0.698316 -4.54662
220 1 -2.54467 0.00466067 -0.578675 -4.46922
221 1 -2.44889 2.57043 -3.83134 -4.54965
222 1 -3.77547 1.44801 -2.23352 -4.5182
223 1 -3.66212 3.93823 0.79438 -4.5244
224 1 -1.0903 1.38787 0.788332 -4.50986
225 1 -1.25157 3.75414 -2.21629 -4.54291
226 1 0.143542 -0.0131178 -3.84926 -4.53456
227 1 0.195772 2.63263 -0.742842 -4.53595
228 1 2.60291 0.280523 -0.658304 -4.56013
229 1 2.74766 2.87281 -3.89886 -4.55324
230 1 1.45511 1.48157 -2.35018 -4.51535
231 1 1.43655 3.91358 0.814184 -4.53659
232 1 3.95899 1.5399 0.838432 -4.55252
233 1 4.00501 4.03742 -2.19302 -4.49518
234 1 5.19286 0.0516734 -3.57402 -4.38797
235 1 5.2513 2.74572 -0.663007 -4.54374
236 1 7.74502 0.285406 -0.379235 -4.53587
237 1 7.63943 2.77531 -3.42482 -4.57556
238 1 6.44414 1.20429 -2.05933 -4.48921
239 1 6.48261 4.09539 0.914147 -4.57916
240 1 9.04854 1.31811 1.27793 -4.49063
241 1 8.98658 4.11444 -2.01087 -4.4801
242 1 10.1829 0.103981 -3.33914 -4.49255
243 1 9.9842 2.82832 -0.247639 -4.57005
244 1 12.4991 0.0406921 0.096806 -4.46744
245 1 12.4484 2.69039 -3.06346 -4.46286
246 1 11.1737 1.35264 -1.55693 -4.46568
247 1 11.5381 4.05298 1.07606 -4.5484
248 1 13.7985 1.48003 1.49681 -4.5284
249 1 14.0002 3.89917 -1.93384 -4.4863
250 1 14.6468 -0.148272 -3.28254 -4.55531
251 1 14.9717 2.37433 -0.429476 -4.51995
252 1 17.778 -0.168363 -0.193898 -4.78811
253 1 17.1482 1.67329 58.0108 -4.45173
254 1 16.2288 0.833246 -1.72995 -4.35854
255 1 16.3463 3.97191 0.627553 -4.57326
256 1 19.16 1.03969 1.5188 -4.30606
257 1 18.6131 3.43411 -3.21593 -3.984
258 1 19.4526 1.35104 57.9372 -4.13885
259 1 -17.7026 5.49195 -0.68257 -4.05007
260 1 -17.384 8.09303 57.3168 -4.51286
261 1 -17.9484 6.2801 -2.8842 -4.24021
262 1 -16.221 6.74919 0.551889 -4.53364
263 1 -16.5214 9.35509 -2.62953 -3.52978
264 1 -15.8383 5.08284 -3.33554 -5.30379
265 1 -15.3047 8.21043 -0.949702 -4.5114
266 1 -12.8236 5.12242 -0.655752 -4.53674
267 1 -12.7832 7.72729 -3.66419 -4.5904
268 1 -14.1656 6.52887 -2.13611 -4.34338
269 1 -14.1009 9.04706 0.936985 -4.42268
270 1 -11.5743 6.4058 0.952682 -4.49507
271 1 -11.4639 8.96309 -2.20953 -4.52445
272 1 -10.2302 5.12296 57.9933 -4.61646
273 1 -10.301 7.55747 -0.785573 -4.51191
274 1 -7.87988 5.11537 -0.753461 -4.47566
275 1 -7.5643 7.73296 57.7778 -4.54394
276 1 -8.95331 6.58255 -2.45262 -4.4892
277 1 -8.95008 8.83073 0.566448 -4.54091
278 1 -6.34576 5.97708 0.928835 -4.53564
279 1 -6.29245 8.79607 -2.16224 -4.52333
280 1 -5.1428 5.16308 58.1836 -4.49236
281 1 -5.17823 7.33504 -0.682258 -4.55397
282 1 -2.45275 5.23049 -0.679519 -4.56473
283 1 -2.43499 7.63065 57.9822 -4.52724
284 1 -3.80795 6.39011 -2.22942 -4.48907
285 1 -3.85654 8.78089 0.636169 -4.58785
286 1 -0.913189 6.55202 0.727808 -4.51992
287 1 -1.10656 9.1174 -2.45905 -4.57027
288 1 0.00860998 5.23954 -3.69863 -4.54465
289 1 0.301812 8.0121 -0.846648 -4.55596
290 1 2.68582 5.47582 -0.595768 -4.5165
291 1 2.72807 7.90443 57.9261 -4.5385
292 1 1.41454 6.56791 -2.31122 -4.57015
293 1 1.51347 9.24454 0.711725 -4.53168
294 1 4.17372 6.72336 0.821109 -4.53232
295 1 4.1032 9.14208 -2.4266 -4.49085
296 1 5.04686 5.33192 -3.83745 -4.51067
297 1 5.48719 8.03124 -0.796945 -4.50843
298 1 7.84456 5.53014 -0.43019 -4.53717
299 1 7.53877 7.62507 57.7224 -4.5738
300 1 6.47967 6.34634 -2.27357 -4.42362
301 1 6.65819 9.58279 0.71516 -4.38287
302 1 9.26546 6.85244 0.941412 -4.46165
303 1 8.90829 8.90923 -2.59108 -4.54665
304 1 10.2564 5.19175 -3.72128 -4.45226
305 1 10.2013 8.0376 -0.877661 -4.27146
306 1 12.926 5.25849 -0.502652 -4.47747
307 1 12.5145 7.45734 57.9344 -4.39126
308 1 11.3783 6.28713 -1.94237 -4.48749
309 1 12.1177 9.85251 1.62018 -4.45445
310 1 14.2739 6.49273 1.0692 -4.52379
311 1 13.8372 8.45401 -2.26846 -4.27139
312 1 14.7838 5.27681 -3.69501 -4.41958
313 1 15.857 8.04137 0.111995 -4.45798
314 1 18.2134 4.76739 -0.636415 -4.18092
315 1 16.8801 6.26271 -3.76422 -4.61296
316 1 16.881 6.61774 -1.37738 -3.66273
317 1 16.5882 8.4902 2.3316 -4.35455
318 1 18.9448 5.62711 1.40112 -3.58852
319 1 -15.7585 12.8399 1.97724 -4.07487
320 1 -15.0824 10.76 -3.65203 -4.63346
321 1 -15.0062 13.5488 -0.345253 -4.03724
322 1 -12.8045 10.3615 -0.674416 -4.53796
323 1 -12.7108 13.0512 -3.71441 -4.86804
324 1 -13.972 12.068 -1.89179 -4.3011
325 1 -13.6584 13.9071 1.47652 -4.73304
326 1 -11.2205 11.2798 0.67104 -4.44338
327 1 -11.7781 14.486 -2.07945 -4.2213
328 1 -10.1725 10.191 57.8514 -4.56577
329 1 -10.3742 12.8332 -1.03594 -4.39094
330 1 -7.57226 10.2355 -0.810656 -4.56628
331 1 -7.80061 12.7398 57.3528 -4.482
332 1 -8.73462 11.5402 -2.53334 -4.42924
333 1 -9.07555 13.794 0.55047 -4.45309
334 1 -6.29479 11.5674 0.568177 -4.52159
335 1 -6.57274 13.9479 -2.87341 -4.55303
336 1 -5.04707 10.1743 57.9952 -4.52807
337 1 -5.33139 12.8202 -1.20954 -4.49116
338 1 -2.52595 10.202 -0.881507 -4.50958
339 1 -2.45295 12.889 57.8084 -4.54553
340 1 -3.72388 11.5658 -2.39446 -4.64507
341 1 -4.02618 14.0158 0.415544 -4.44097
342 1 -1.55071 11.4723 0.852675 -4.57893
343 1 -1.11113 14.0703 -2.47295 -4.52588
344 1 0.208131 10.3592 57.7657 -4.54574
345 1 -0.14185 12.6364 -0.692294 -4.49919
346 1 2.92863 10.3448 -0.799377 -4.51488
347 1 2.50186 12.9507 58.0509 -4.48346
348 1 1.35697 11.485 -2.19331 -4.53035
349 1 0.952752 14.0736 0.935918 -4.5585
350 1 3.85508 11.8753 0.727396 -4.55135
351 1 3.79097 14.3073 -2.16666 -4.38899
352 1 5.28472 10.3338 57.6814 -4.51316
353 1 5.32857 13.2653 -0.57492 -4.36103
354 1 7.69869 10.5773 -1.24322 -4.37161
355 1 7.1477 12.9054 57.4676 -4.37155
356 1 6.12779 11.8509 -2.39761 -4.44372
357 1 6.07629 14.6645 1.26824 -4.58739
358 1 8.81996 12.223 1.32913 -4.43939
359 1 8.32898 14.0995 -2.48992 -4.83111
360 1 9.96556 10.1184 57.5383 -4.39009
361 1 9.3218 12.3608 -1.02998 -4.72846
362 1 12.2614 9.60258 -0.887923 -4.82292
363 1 12.4256 12.3687 57.5883 -4.2148
364 1 11.2026 11.2328 -2.41343 -4.67891
365 1 10.3783 13.9468 1.621 -4.53267
366 1 13.8866 11.4548 1.97202 -4.40337
367 1 12.9364 12.8445 -1.82568 -4.27047
368 1 15.0526 9.57169 57.6956 -4.18415
369 1 14.1355 11.222 -0.53878 -4.33387
370 1 15.6902 9.72076 -1.62326 -4.26175
371 1 -13.3915 15.3839 -0.54006 -4.06705
372 1 -12.4077 16.0678 1.73346 -4.15703
373 1 -9.27132 15.5736 57.4565 -4.34847
374 1 -8.03113 14.9931 -1.28357 -4.49389
375 1 -8.35644 17.7744 57.3342 -4.45057
376 1 -9.19194 16.8247 -2.36727 -4.38972
377 1 -6.82788 16.1959 0.3406 -4.73181
378 1 -7.03561 18.1106 -2.38056 -3.48476
379 1 -5.18672 15.3943 57.6339 -4.5564
380 1 -5.47525 17.6522 -0.855765 -4.59066
381 1 -2.53653 15.2954 -1.0694 -4.53149
382 1 -2.64177 17.8397 57.824 -4.62944
383 1 -3.972 16.625 -2.45549 -4.47052
384 1 -5.16735 18.8628 1.17859 -4.12296
385 1 -1.74576 16.5737 0.707473 -4.5483
386 1 -0.912415 18.9451 -2.7452 -3.67012
387 1 0.34599 15.3932 57.9932 -4.457
388 1 -0.414376 18.0888 -0.561828 -4.64402
389 1 2.37639 15.2159 -0.57632 -4.57504
390 1 2.50722 18.0097 -2.83225 -4.47538
391 1 0.949128 16.5742 -1.76752 -4.61692
392 1 0.889837 19.2584 0.919363 -4.464
393 1 3.22426 16.8591 0.942408 -4.59189
394 1 2.41401 19.4825 -0.993707 -4.31338
395 1 4.40928 15.71 57.6531 -4.23654
396 1 4.40893 18.3209 -0.389946 -4.27264
397 1 7.26589 16.0687 -1.60312 -4.41059
398 1 8.76873 17.3608 -2.89606 -4.41402
399 1 5.52341 17.1019 -2.70321 -4.24067
400 1 5.25642 19.3274 1.45478 -3.82927
401 1 7.83426 16.1246 0.796782 -4.44797
402 1 9.70782 14.7124 57.28 -4.34919
403 1 11.0318 13.925 -0.693405 -4.28078
404 1 10.2589 15.4927 -2.37049 -4.29488
405 1 1.17166 19.9663 -3.00568 -4.42337
406 1 -12.3675 -15.6743 1.61127 -4.27552
407 1 -7.83585 -17.8999 2.35062 -3.78405
408 1 -8.81547 -16.2828 6.93007 -3.59913
409 1 -6.38672 -18.4547 7.98803 -3.99251
410 1 -6.36661 -16.8061 3.77344 -4.53213
411 1 -5.21042 -17.648 5.77095 -4.40496
412 1 -2.5083 -18.1471 2.72426 -4.47163
413 1 -3.31408 -18.6852 4.88867 -3.81811
414 1 -3.61208 -16.4356 6.92208 -4.61769
415 1 -1.31823 -18.5667 6.09808 -3.70275
416 1 -1.05913 -16.4954 3.53353 -4.63089
417 1 1.1255 -20.1371 0.226955 -3.78293
418 1 0.365701 -17.7017 4.76805 -4.63356
419 1 2.78905 -17.7549 1.85544 -4.56829
420 1 0.972235 -18.9726 2.95275 -3.92621
421 1 1.24035 -16.0198 6.42044 -4.3286
422 1 4.26617 -18.7101 7.65342 -4.1976
423 1 4.01855 -16.7274 3.73069 -4.45933
424 1 5.36774 -17.7763 5.25846 -4.2804
425 1 7.81968 -17.8548 1.79081 -4.42197
426 1 7.3375 -18.1615 4.12985 -3.48539
427 1 6.34366 -16.3177 6.9029 -4.40773
428 1 8.65944 -16.3368 3.51293 -4.2995
429 1 12.6354 -14.7803 7.99456 -4.33782
430 1 -16.9751 -9.59289 4.27524 -4.26643
431 1 -16.0017 -11.7905 4.03136 -4.08744
432 1 -12.9836 -14.5208 3.46366 -4.04648
433 1 -12.5737 -12.5277 1.86225 -4.72197
434 1 -14.785 -13.4683 2.58771 -4.14041
435 1 -14.3775 -11.4285 5.83666 -4.98427
436 1 -11.8336 -13.9949 5.72727 -4.43943
437 1 -11.5483 -11.3893 3.7669 -4.42689
438 1 -10.0265 -15.8071 1.89984 -4.16435
439 1 -10.0373 -12.5979 5.0486 -4.59659
440 1 -7.67193 -15.3449 5.05813 -4.69827
441 1 -7.47953 -12.9264 2.4592 -4.6008
442 1 -9.09299 -14.2138 3.57917 -4.47365
443 1 -9.24198 -11.2942 6.87338 -4.49086
444 1 -6.43167 -13.7421 6.37899 -4.50464
445 1 -6.40313 -11.3178 3.93055 -4.54924
446 1 -5.05402 -15.5467 2.26926 -4.5963
447 1 -4.86274 -12.5286 5.15979 -4.58514
448 1 -2.36188 -15.2835 5.23169 -4.45242
449 1 -2.61201 -12.5612 2.16997 -4.56161
450 1 -3.69492 -14.0715 3.63195 -4.52936
451 1 -3.89005 -11.2837 6.97202 -4.51363
452 1 -1.2219 -13.7241 6.77311 -4.53004
453 1 -1.34601 -11.2362 3.72194 -4.54462
454 1 0.02507 -14.9778 1.93005 -4.5321
455 1 0.102131 -12.6464 5.09841 -4.53944
456 1 2.91595 -15.1738 5.15437 -4.5001
457 1 2.59351 -12.4252 2.41732 -4.56392
458 1 1.37683 -14.0996 3.66648 -4.55907
459 1 1.18853 -11.2931 6.77207 -4.51948
460 1 3.82138 -13.7616 6.83435 -4.47781
461 1 3.92505 -11.2005 4.00326 -4.5726
462 1 5.24656 -15.1198 2.47994 -4.54899
463 1 5.34888 -12.4401 5.50264 -4.60175
464 1 7.92414 -15.0323 5.41355 -4.39349
465 1 7.83688 -12.5645 2.40075 -4.51699
466 1 6.59282 -13.749 3.93104 -4.56064
467 1 6.6465 -11.2026 7.1299 -4.50408
468 1 9.21941 -13.6868 7.00587 -4.4283
469 1 9.11067 -11.3347 4.10415 -4.56829
470 1 10.3867 -15.0094 2.41893 -4.49497
471 1 10.5806 -12.5614 5.37872 -4.58132
472 1 13.1714 -14.2552 5.58579 -3.68381
473 1 13.2335 -12.2425 2.30139 -4.50992
474 1 11.8701 -13.7122 3.68421 -4.50588
475 1 11.9481 -11.0813 6.64454 -4.47431
476 1 13.234 -12.4495 8.04938 -4.67427
477 1 14.6796 -11.0618 3.86439 -4.52644
478 1 15.047 -12.7371 5.50085 -3.62324
479 1 15.5872 -12.4426 7.79208 -4.53265
480 1 -17.6448 -7.80876 2.83225 -4.55988
481 1 -19.299 -5.25721 8.50333 -4.24668
482 1 -16.6825 -8.90715 6.61612 -4.36225
483 1 -16.3453 -6.49814 4.19942 -4.71604
484 1 -15.1567 -10.0547 2.7873 -4.60028
485 1 -14.9539 -7.60517 5.7961 -4.5663
486 1 -12.4896 -9.99942 5.33025 -4.35429
487 1 -12.323 -7.55506 2.33702 -4.46966
488 1 -13.734 -8.66992 3.865 -4.58752
489 1 -13.959 -6.14669 7.40747 -4.51796
490 1 -11.803 -8.59029 7.21422 -4.32353
491 1 -11.3668 -6.23262 4.02573 -4.51012
492 1 -9.9926 -10.1995 2.41886 -4.54577
493 1 -10.2041 -7.60162 5.61127 -4.55561
494 1 -7.5644 -10.1156 5.66214 -4.55655
495 1 -7.60194 -7.46896 2.60614 -4.48001
496 1 -8.79051 -8.87059 4.16395 -4.50751
497 1 -8.98188 -6.17563 7.08485 -4.57626
498 1 -6.4154 -8.6576 7.01032 -4.56031
499 1 -6.31828 -6.20053 4.06138 -4.527
500 1 -5.08591 -10.1618 2.33714 -4.55647
501 1 -5.04044 -7.46324 5.59968 -4.52856
502 1 -2.4491 -10.041 5.42977 -4.5172
503 1 -2.63893 -7.27219 2.46136 -4.5647
504 1 -3.86891 -8.7662 3.88352 -4.54786
505 1 -3.77016 -6.18232 7.10302 -4.52443
506 1 -1.36662 -8.60679 6.98679 -4.54845
507 1 -1.32843 -6.10475 3.96462 -4.52489
508 1 0.037752 -9.99624 2.38917 -4.55142
509 1 0.0104866 -7.37559 5.43875 -4.52043
510 1 2.63261 -9.88614 5.57518 -4.59963
511 1 2.6086 -7.43853 2.49225 -4.56806
512 1 1.29372 -8.72228 3.91474 -4.56388
513 1 1.12033 -6.13756 7.16987 -4.5239
514 1 3.90002 -8.57639 7.10599 -4.56346
515 1 3.71628 -6.19939 4.13439 -4.56298
516 1 5.4491 -9.99508 2.5947 -4.56442
517 1 5.18947 -7.38664 5.55937 -4.55645
518 1 7.85263 -10.0447 5.60757 -4.53578
519 1 7.51237 -7.23245 2.51623 -4.53295
520 1 6.61958 -8.65158 4.17844 -4.53197
521 1 6.33464 -6.20682 7.18007 -4.53672
522 1 9.14187 -8.731 7.14822 -4.62002
523 1 8.84959 -5.96705 4.08619 -4.54831
524 1 10.148 -9.72121 2.68355 -4.56468
525 1 10.251 -7.277 5.6184 -4.53848
526 1 13.2521 -9.7503 5.21653 -4.56553
527 1 12.8769 -7.30845 2.83282 -4.51311
528 1 11.5177 -8.60803 4.1707 -4.5624
529 1 11.4964 -6.17976 7.31835 -4.62566
530 1 14.3601 -8.75249 7.0305 -4.4677
531 1 13.9129 -5.9005 4.50218 -4.44503
532 1 15.6929 -9.69471 2.15212 -4.35028
533 1 15.5787 -7.30845 5.62637 -4.63565
534 1 16.8564 -5.61601 2.45335 -4.51177
535 1 16.331 -7.73243 3.37747 -3.61717
536 1 16.7422 -6.215 7.38812 -4.0636
537 1 18.3952 -4.13716 3.62784 -4.39456
538 1 -18.1011 -5.42052 5.32186 -4.55265
539 1 -17.1758 -3.24085 2.38622 -4.2868
540 1 -18.9254 -4.20322 3.3894 -4.44416
541 1 -19.3926 -2.1615 4.62053 -4.02291
542 1 -16.7045 -4.01639 6.69498 -4.65237
543 1 -17.1026 -1.30183 4.16497 -5.26304
544 1 -15.0005 -5.48465 2.59421 -4.37129
545 1 -15.4372 -2.37837 5.57279 -4.27097
546 1 -12.7514 -4.98676 5.56068 -4.51078
547 1 -12.9705 -2.70814 2.45369 -4.58629
548 1 -14.2684 -3.79566 4.10945 -4.48907
549 1 -14.1058 -1.54603 7.32022 -4.43705
550 1 -11.5697 -3.59528 7.00465 -4.43746
551 1 -11.5709 -1.22984 3.74894 -4.52043
552 1 -10.0813 -4.91374 2.46791 -4.58842
553 1 -10.2625 -2.3574 5.35214 -4.50512
554 1 -7.68401 -5.09355 5.49178 -4.45495
555 1 -7.61708 -2.49938 2.25591 -4.55875
556 1 -8.83482 -3.65964 3.97456 -4.54377
557 1 -9.00255 -1.24118 6.96313 -4.43356
558 1 -6.55738 -3.93865 7.18381 -4.54751
559 1 -6.25204 -1.28882 3.92832 -4.46683
560 1 -4.95008 -4.93148 2.66399 -4.47529
561 1 -5.17084 -2.53027 5.79454 -4.48157
562 1 -2.59365 -4.849 5.55882 -4.52696
563 1 -2.61889 -2.16249 2.54645 -4.45562
564 1 -3.79298 -3.43538 4.13434 -4.54721
565 1 -3.80756 -1.10801 7.22056 -4.55498
566 1 -1.41366 -3.5395 7.17556 -4.49542
567 1 -1.22627 -0.914575 4.0828 -4.56091
568 1 -0.180037 -4.91835 2.39192 -4.54618
569 1 -0.0955801 -2.46374 5.50739 -4.54241
570 1 2.45299 -4.97387 5.71436 -4.48541
571 1 2.47985 -2.18119 2.62905 -4.51585
572 1 1.2713 -3.77349 3.92927 -4.52205
573 1 1.17065 -1.11907 6.9449 -4.56269
574 1 3.64603 -3.74103 7.23097 -4.55057
575 1 3.86108 -1.01292 4.1555 -4.479
576 1 4.98905 -4.82111 2.71709 -4.55913
577 1 4.93263 -2.3232 5.77839 -4.55813
578 1 7.49947 -4.66083 5.67767 -4.52406
579 1 7.60886 -2.1472 2.69424 -4.46687
580 1 6.26191 -3.43021 4.16593 -4.5623
581 1 6.36864 -1.0983 7.17729 -4.52513
582 1 8.76349 -3.56359 7.3944 -4.57173
583 1 8.79787 -1.10063 4.31185 -4.54374
584 1 10.1677 -4.74434 2.63646 -4.51831
585 1 10.1474 -2.31557 5.86406 -4.52081
586 1 12.7936 -4.65232 6.12547 -4.56407
587 1 13.0669 -2.66434 3.26308 -4.34529
588 1 11.3674 -3.65495 4.44305 -4.52636
589 1 11.2433 -1.01835 7.54607 -4.55712
590 1 13.9697 -3.28528 7.62603 -4.50276
591 1 13.9409 -0.904273 4.62668 -4.58467
592 1 14.9772 -4.24048 3.04867 -5.02068
593 1 15.2671 -2.02055 6.25305 -4.5428
594 1 17.4895 -4.4519 5.92877 -3.50058
595 1 18.5324 -2.43524 2.03137 -4.36252
596 1 16.4918 -3.02615 4.49575 -4.40751
597 1 16.4155 -0.0623415 7.01893 -4.46237
598 1 18.3033 -1.07618 7.93017 -4.39925
599 1 19.171 -0.498143 3.25929 -4.29489
600 1 -19.0469 -0.380257 3.04108 -4.02263
601 1 -17.732 0.238338 5.87799 -4.45546
602 1 -17.4204 2.462 3.06266 -4.63446
603 1 -19.136 1.66384 4.51231 -4.45731
604 1 -18.4685 3.34888 6.18596 -4.52956
605 1 -16.2807 1.15936 7.48046 -4.55265
606 1 -16.5654 3.87424 4.89717 -4.50959
607 1 -15.3299 -0.511311 2.6518 -4.29143
608 1 -15.1967 2.17555 5.6999 -4.44675
609 1 -12.8294 -0.316871 5.60309 -4.4996
610 1 -12.8418 2.29865 2.48109 -4.49648
611 1 -14.1175 0.927738 4.06638 -4.49334
612 1 -14.0464 3.65362 7.03684 -4.58545
613 1 -11.549 0.989478 7.02341 -4.50407
614 1 -11.5226 3.67512 3.8614 -4.58804
615 1 -10.2519 0.0825406 2.27888 -4.56856
616 1 -10.2377 2.37197 5.36404 -4.49001
617 1 -7.65289 0.0645519 5.40218 -4.50247
618 1 -7.37703 2.67894 2.49208 -4.53598
619 1 -8.85522 1.34208 3.81388 -4.57227
620 1 -8.93477 3.81511 6.84392 -4.50188
621 1 -6.61067 1.23106 7.05333 -4.48785
622 1 -6.22926 4.04758 4.06995 -4.56301
623 1 -5.18268 0.150243 2.43298 -4.51822
624 1 -5.25071 2.47151 5.57432 -4.55602
625 1 -2.56708 0.22041 5.66657 -4.55484
626 1 -2.36489 2.62054 2.34395 -4.48372
627 1 -3.81429 1.47469 3.97929 -4.47527
628 1 -3.91684 3.94455 6.95146 -4.51705
629 1 -1.33743 1.54792 7.16825 -4.5717
630 1 -1.24609 4.00531 3.99328 -4.47899
631 1 0.147472 0.468406 2.61958 -4.45235
632 1 -0.0484413 2.80512 5.59207 -4.57
633 1 2.67454 0.364565 5.8108 -4.54974
634 1 2.74397 2.78721 2.45293 -4.49452
635 1 1.44508 1.63718 4.12426 -4.50306
636 1 1.38009 3.99458 7.03693 -4.4797
637 1 3.91168 1.70861 7.26001 -4.58051
638 1 3.98807 4.1095 4.06115 -4.53747
639 1 5.08239 0.180797 2.43861 -4.50353
640 1 5.22125 2.98403 5.7022 -4.47984
641 1 7.44766 0.333612 5.70706 -4.50799
642 1 7.74307 2.8387 2.49968 -4.5396
643 1 6.26702 1.53959 3.99043 -4.48673
644 1 6.59079 4.32169 7.22305 -4.55931
645 1 8.7622 1.47983 7.24714 -4.49068
646 1 8.73831 4.08215 4.18684 -4.41803
647 1 10.3283 -0.138899 2.81397 -4.48568
648 1 10.0228 2.87263 5.80988 -4.58539
649 1 12.5653 0.399369 6.13961 -4.57919
650 1 12.5791 2.82622 2.86741 -4.49883
651 1 11.3486 1.47936 4.40876 -4.53551
652 1 11.3995 4.27922 7.1501 -4.48846
653 1 13.8697 1.85043 7.42516 -4.58961
654 1 14.1013 4.26487 4.23369 -4.5052
655 1 15.0577 -0.0471184 2.69585 -4.48932
656 1 15.2488 2.94826 5.77796 -4.41833
657 1 17.5829 0.184104 4.92487 -4.58513
658 1 17.2887 2.4305 2.06669 -4.70957
659 1 16.1069 1.64027 3.93321 -4.58732
660 1 16.7454 4.00786 7.31097 -4.37409
661 1 18.9525 1.98727 5.62667 -4.37865
662 1 18.9023 3.83962 3.00134 -4.56533
663 1 20.3422 1.8394 3.53244 -4.11643
664 1 -18.6681 5.69199 6.45936 -4.37758
665 1 -17.0082 7.51079 2.72663 -3.62438
666 1 -17.938 5.76396 3.93222 -4.27366
667 1 -16.6078 6.54785 7.13791 -4.6105
668 1 -16.5199 9.3613 4.08417 -4.5279
669 1 -15.5139 4.96295 2.01564 -4.51883
670 1 -15.3989 7.68712 5.45515 -4.50213
671 1 -12.9079 4.8181 5.33592 -4.52632
672 1 -12.9354 7.50192 2.5619 -4.5113
673 1 -14.4152 6.13702 3.9132 -4.43285
674 1 -13.891 8.78502 6.78644 -4.65585
675 1 -11.5594 6.04792 6.8233 -4.53696
676 1 -11.4106 8.74139 3.91134 -4.55187
677 1 -10.292 5.05886 2.28303 -4.56093
678 1 -10.1502 7.28999 5.29554 -4.58201
679 1 -7.58993 5.21545 5.53791 -4.50356
680 1 -7.66312 7.50563 2.16129 -4.56014
681 1 -8.83635 6.20413 3.72106 -4.53406
682 1 -8.79852 8.62556 6.70038 -4.56812
683 1 -6.24016 6.42343 7.04431 -4.56608
684 1 -6.32029 8.73945 3.72504 -4.4319
685 1 -4.80741 5.1634 2.51883 -4.47466
686 1 -5.06714 7.86812 5.53324 -4.45506
687 1 -2.472 5.41536 5.58787 -4.51338
688 1 -2.45634 7.71998 2.20469 -4.52273
689 1 -3.66847 6.64013 3.93482 -4.50423
690 1 -3.56093 8.9327 6.92016 -4.42612
691 1 -1.01377 6.60195 7.04435 -4.53677
692 1 -1.17742 9.02065 3.77886 -4.49945
693 1 0.0975878 5.13078 2.31331 -4.54503
694 1 0.213717 7.80161 5.37104 -4.48643
695 1 2.48637 5.38605 5.44607 -4.55423
696 1 2.57977 7.84833 2.20297 -4.55483
697 1 1.304 6.57172 3.7145 -4.48907
698 1 1.21498 9.36296 6.8467 -4.54797
699 1 3.89947 6.75035 6.87736 -4.53379
700 1 3.85465 9.17197 3.8098 -4.52855
701 1 5.19679 5.43957 2.46592 -4.53589
702 1 5.29575 7.9973 5.28493 -4.54826
703 1 7.84061 5.56141 5.63671 -4.3929
704 1 7.78915 8.07457 2.27771 -4.48469
705 1 6.61837 6.67182 3.89671 -4.52957
706 1 6.4607 9.41062 6.88793 -4.40453
707 1 9.05656 6.97445 7.31327 -4.41783
708 1 8.88484 9.18175 4.02852 -4.586
709 1 10.025 5.1466 2.5423 -4.47223
710 1 10.2596 8.25052 5.65179 -4.3275
711 1 12.5528 5.59212 5.5465 -4.4886
712 1 12.7588 7.76971 2.5262 -4.49674
713 1 11.1738 6.76576 3.97237 -4.56935
714 1 11.7129 9.62686 8.25963 -4.41976
715 1 13.7484 6.78903 7.33667 -4.25948
716 1 13.7153 8.62787 4.51887 -4.27654
717 1 15.511 5.10682 2.51244 -4.46931
718 1 15.1358 8.52426 6.45775 -4.71842
719 1 18.1476 4.2359 5.30462 -4.27452
720 1 18.5852 7.46925 3.1462 -4.32426
721 1 16.3815 6.84276 3.91805 -4.40509
722 1 16.8616 9.74066 7.77115 -4.13237
723 1 18.2456 6.63279 5.30096 -4.28416
724 1 -16.0013 11.1723 5.70102 -3.49499
725 1 -15.5253 10.42 2.21063 -4.53058
726 1 -15.1158 12.8675 4.33538 -4.60853
727 1 -12.5187 10.1398 5.36152 -4.54001
728 1 -12.1202 12.4069 2.40988 -4.19447
729 1 -13.6763 11.1735 3.58722 -4.68084
730 1 -13.1985 13.907 5.35552 -4.04617
731 1 -11.2982 11.5993 6.79478 -4.61126
732 1 -11.0923 13.9705 3.94001 -5.41555
733 1 -10.2347 9.81934 2.25708 -4.44772
734 1 -9.7263 12.5705 5.18589 -4.3803
735 1 -7.38973 9.98565 5.37977 -4.49036
736 1 -7.79453 12.5109 2.1091 -4.54436
737 1 -8.75751 11.0779 3.69882 -4.50043
738 1 -8.45643 14.0046 6.54936 -4.57211
739 1 -6.0671 11.3768 7.00669 -4.38222
740 1 -6.46699 13.9042 3.38363 -4.62941
741 1 -5.27572 10.0685 2.10372 -4.52205
742 1 -5.33147 12.5415 4.89977 -4.44381