ITEM: TIMESTEP
46000
ITEM: NUMBER OF ATOMS
4050
ITEM: BOX BOUNDS ss ss pp
-2.1430137397272929e+01 2.1378297208595885e+01
-2.1599277141012724e+01 2.1373308539329035e+01
-6.2456500000000015e-01 5.4934564999999999e+01
ITEM: ATOMS id type x y z c_peratom
1 1 -12.4387 -15.5854 1.42833 -4.04739
2 1 -8.12062 -18.1639 0.425319 -4.54795
3 1 -9.25546 -17.4609 3.30799 -4.5362
4 1 -7.86842 -19.2405 2.56783 -4.36229
5 1 -6.35486 -16.8268 1.17492 -4.68523
6 1 -5.59499 -18.7381 2.37884 -4.67107
7 1 -2.71271 -19.0347 -0.311378 -4.57295
8 1 -5.02156 -19.4728 0.193391 -3.77362
9 1 -4.03109 -17.5768 3.76678 -4.42773
10 1 -0.681419 -20.0826 4.23898 -4.50653
11 1 -1.60371 -17.3222 0.961222 -4.55799
12 1 0.330766 -20.2896 1.15704 -4.68812
13 1 -0.334035 -18.507 2.54679 -4.65719
14 1 3.54386 -18.4816 54.6877 -4.53513
15 1 2.39394 -19.597 0.761665 -3.84848
16 1 1.40944 -17.4079 3.61832 -4.59512
17 1 3.28407 -20.2527 2.77955 -4.44336
18 1 4.11789 -16.9212 0.747706 -4.61206
19 1 5.1172 -18.7882 1.89006 -4.32254
20 1 7.97678 -18.4227 -0.101595 -3.65546
21 1 9.75016 -18.7497 2.1862 -3.7866
22 1 6.55459 -17.33 3.13181 -4.46734
23 1 9.57391 -16.7989 0.916199 -4.8808
24 1 11.4639 -17.295 2.68588 -4.2286
25 1 -15.8412 -12.8811 1.27348 -3.94709
26 1 -15.9422 -14.0286 3.34294 -4.12343
27 1 -14.434 -15.8814 2.75798 -4.16685
28 1 -12.903 -13.2921 54.7486 -4.41168
29 1 -14.3614 -14.6542 0.573362 -4.32986
30 1 -14.7423 -11.9989 3.56244 -4.56557
31 1 -11.6408 -14.7333 3.62866 -4.76303
32 1 -11.6462 -12.0301 0.802405 -4.53282
33 1 -10.9745 -16.0136 -0.510359 -4.19504
34 1 -10.3505 -13.1052 2.4321 -4.40438
35 1 -7.97283 -15.7611 2.44023 -4.59868
36 1 -8.03018 -13.2391 -0.531583 -4.5775
37 1 -9.36916 -14.6663 0.923744 -4.52135
38 1 -9.03187 -11.8596 3.8626 -4.58286
39 1 -6.31312 -14.6341 3.74192 -4.5238
40 1 -6.53987 -11.923 0.743504 -4.59184
41 1 -5.10834 -16.1042 54.8349 -4.48056
42 1 -5.25189 -13.4743 2.07692 -4.5429
43 1 -2.94131 -16.0356 2.51452 -4.51422
44 1 -2.6187 -13.2888 54.9072 -4.59471
45 1 -3.88661 -14.7826 0.757324 -4.58323
46 1 -4.07255 -12.0038 3.53006 -4.58104
47 1 -1.21139 -14.9028 3.60033 -4.5976
48 1 -1.39437 -11.8902 0.859965 -4.59792
49 1 0.0387678 -16.2948 -0.481143 -4.5089
50 1 -0.0831994 -13.3076 2.12522 -4.55771
51 1 2.5623 -15.9821 2.23111 -4.55686
52 1 2.73299 -13.4133 -0.506601 -4.56667
53 1 1.22634 -14.6852 0.807636 -4.61149
54 1 1.18024 -11.9536 3.64854 -4.61335
55 1 3.88226 -14.7579 3.72967 -4.60605
56 1 3.82874 -11.7801 0.747785 -4.54689
57 1 5.59648 -15.7947 54.8654 -4.61069
58 1 4.86592 -13.3797 2.08134 -4.48764
59 1 7.97611 -15.7522 2.23003 -4.48874
60 1 8.25506 -13.2349 -0.57788 -4.52018
61 1 6.63859 -14.2789 0.819792 -4.62024
62 1 6.63254 -12.3076 3.53832 -4.52226
63 1 9.33684 -14.5681 3.75015 -4.66719
64 1 9.20362 -11.8312 0.960618 -4.60188
65 1 11.1216 -16.0336 54.6597 -4.31112
66 1 10.5173 -13.1497 2.38682 -4.53344
67 1 13.1549 -15.961 1.53882 -4.5352
68 1 13.0032 -12.717 0.0615207 -4.37554
69 1 11.6272 -14.4265 0.719667 -4.62799
70 1 12.0622 -12.1143 3.82191 -4.58236
71 1 14.1861 -14.3213 2.67051 -3.53615
72 1 14.5845 -11.4211 1.18195 -4.67014
73 1 15.9407 -13.1874 1.66295 -4.54723
74 1 17.1833 -11.5196 2.67586 -3.7595
75 1 -18.0247 -7.83518 54.5897 -3.68565
76 1 -19.423 -5.23905 4.41564 -4.38233
77 1 -17.5351 -9.07244 3.82261 -3.76816
78 1 -17.3981 -6.48708 0.752944 -4.53274
79 1 -15.9962 -11.0701 -0.389296 -4.33996
80 1 -16.3388 -8.11012 2.03801 -4.61574
81 1 -13.2625 -10.8653 2.02318 -4.44207
82 1 -13.5758 -8.10793 54.9389 -4.57368
83 1 -14.7759 -9.52268 0.861653 -4.59705
84 1 -15.0189 -6.66982 3.40862 -4.58967
85 1 -11.9668 -9.44868 3.4317 -4.60112
86 1 -12.3434 -6.80235 0.845102 -4.60013
87 1 -10.4597 -10.6222 54.8763 -4.61126
88 1 -10.6738 -8.04081 2.12623 -4.61678
89 1 -7.75115 -10.6577 2.36271 -4.60879
90 1 -8.06181 -7.89833 -0.584022 -4.5806
91 1 -9.1775 -9.38977 0.927754 -4.59217
92 1 -9.33281 -6.68749 3.56993 -4.60718
93 1 -6.32693 -9.20569 3.58047 -4.59339
94 1 -6.68339 -6.57206 0.594563 -4.58744
95 1 -5.23211 -10.4214 -0.565254 -4.60557
96 1 -5.26126 -7.8711 2.02931 -4.5844
97 1 -2.84474 -10.5281 2.24655 -4.54706
98 1 -2.32103 -7.74804 54.9225 -4.5898
99 1 -3.76242 -9.07442 0.708431 -4.60759
100 1 -4.06108 -6.53381 3.5166 -4.61821
101 1 -1.24063 -9.41511 3.48276 -4.59423
102 1 -1.17822 -6.43573 0.973663 -4.57016
103 1 0.10069 -10.9003 -0.575166 -4.56213
104 1 0.0708048 -7.94314 2.12693 -4.5625
105 1 2.61273 -10.5675 2.36479 -4.5837
106 1 2.72525 -8.02578 54.8177 -4.56418
107 1 1.38089 -9.40225 0.875347 -4.52906
108 1 1.38678 -6.72826 3.57092 -4.57635
109 1 4.17199 -9.34086 3.52418 -4.5552
110 1 3.98453 -6.59668 0.720476 -4.60729
111 1 5.35017 -10.576 -0.52113 -4.57055
112 1 5.4168 -7.95892 1.98447 -4.5993
113 1 7.81189 -10.5705 2.28724 -4.56222
114 1 8.28817 -7.79147 -0.631338 -4.6204
115 1 6.84044 -9.1401 0.657062 -4.57292
116 1 6.82701 -6.72411 3.35064 -4.59241
117 1 9.45723 -9.39982 3.42899 -4.59694
118 1 9.64006 -6.39871 0.714051 -4.5766
119 1 10.569 -10.4488 -0.385323 -4.5969
120 1 10.7414 -7.83142 2.17852 -4.59847
121 1 13.1838 -10.302 2.68029 -4.50948
122 1 13.5315 -7.95277 54.8891 -4.58733
123 1 12.121 -9.12425 0.894828 -4.58152
124 1 12.1036 -6.40982 3.50487 -4.61191
125 1 14.8902 -8.96225 3.80091 -4.61461
126 1 14.8199 -6.61745 0.811275 -4.62041
127 1 15.9978 -10.8998 -0.54611 -4.57677
128 1 16.1553 -8.017 2.13063 -4.55906
129 1 18.7069 -8.45803 -0.535464 -3.49278
130 1 17.3432 -9.84473 0.951942 -4.60867
131 1 17.5988 -6.36469 3.3338 -4.59117
132 1 19.5313 -6.34604 -0.183714 -3.58829
133 1 -18.9105 -5.17578 2.12134 -4.22149
134 1 -18.8324 -2.54094 54.7329 -5.09061
135 1 -20.1997 -3.58394 0.819254 -3.40475
136 1 -20.3149 -1.91018 4.29174 -4.29386
137 1 -17.357 -4.21343 3.65308 -4.92693
138 1 -17.3876 -1.19791 0.541699 -4.47406
139 1 -16.2178 -5.03874 54.8053 -4.54904
140 1 -16.3935 -2.55953 2.13856 -4.34122
141 1 -13.63 -5.30673 2.2443 -4.57195
142 1 -13.5703 -2.61139 -0.483215 -4.57309
143 1 -14.9312 -3.91068 0.813662 -4.61632
144 1 -14.9495 -1.32454 3.51001 -4.5811
145 1 -12.0271 -4.05548 3.43956 -4.56952
146 1 -12.1139 -1.33585 0.804906 -4.62494
147 1 -10.9618 -5.45461 -0.477279 -4.59078
148 1 -10.6581 -2.70567 2.09841 -4.61392
149 1 -7.96273 -5.38517 2.18659 -4.59486
150 1 -7.92932 -2.81208 -0.517497 -4.5474
151 1 -9.44437 -4.15567 0.696636 -4.58583
152 1 -9.5054 -1.37252 3.62956 -4.60332
153 1 -6.74374 -3.92421 3.4216 -4.5734
154 1 -6.76362 -1.14698 0.669604 -4.59284
155 1 -5.28092 -5.12711 54.9215 -4.60804
156 1 -5.42008 -2.42829 2.04768 -4.57869
157 1 -2.75743 -5.13493 2.20616 -4.59906
158 1 -2.74528 -2.44191 54.8954 -4.61237
159 1 -4.01613 -3.76154 0.787679 -4.61292
160 1 -4.2119 -1.25184 3.63995 -4.56288
161 1 -1.37968 -3.75514 3.58289 -4.63987
162 1 -1.41241 -1.17145 0.841276 -4.59385
163 1 0.141615 -5.24041 -0.622296 -4.48408
164 1 -0.000765866 -2.47994 2.17656 -4.61378
165 1 2.8597 -5.42588 2.39442 -4.60836
166 1 2.68387 -2.80989 54.9232 -4.60679
167 1 1.5544 -3.95618 1.0911 -4.5067
168 1 1.2877 -1.2527 3.61559 -4.59691
169 1 4.23038 -3.93676 3.59012 -4.59472
170 1 4.04349 -1.2914 0.537899 -4.57604
171 1 5.46526 -5.3071 -0.603345 -4.60345
172 1 5.36065 -2.61504 1.86353 -4.54549
173 1 8.27218 -5.22478 2.19991 -4.5877
174 1 8.11368 -2.68826 54.8579 -4.57438
175 1 6.84176 -4.0838 0.846128 -4.5769
176 1 6.85007 -1.46953 3.25682 -4.55166
177 1 9.54377 -3.81957 3.59554 -4.62779
178 1 9.44817 -1.28039 0.791733 -4.61876
179 1 10.7934 -5.11112 54.7942 -4.52284
180 1 10.9069 -2.68246 2.09549 -4.60324
181 1 13.6332 -5.17108 2.2147 -4.57552
182 1 13.2512 -2.63878 54.6882 -4.6104
183 1 12.1852 -4.0777 0.751871 -4.55722
184 1 12.056 -1.17149 3.47036 -4.58052
185 1 15.0606 -3.76374 3.45278 -4.59028
186 1 14.5618 -1.344 0.606746 -4.61094
187 1 16.1497 -5.47265 54.8107 -4.42034
188 1 16.1687 -2.62151 1.75305 -4.53447
189 1 19.082 -5.18413 1.77099 -4.62045
190 1 18.7336 -2.63828 54.6552 -4.64711
191 1 17.4895 -4.09556 0.470083 -4.66617
192 1 17.2685 -1.30808 3.41847 -4.64931
193 1 19.7839 -2.97341 2.1166 -3.69497
194 1 19.9305 -1.13163 0.470021 -4.11137
195 1 -20.6441 -1.29806 0.144082 -4.46138
196 1 -19.5317 0.240262 3.52983 -4.18218
197 1 -18.9667 2.36948 -0.0634096 -4.23704
198 1 -19.0771 0.280184 1.17421 -4.42613
199 1 -19.7226 4.49382 4.44853 -3.59691
200 1 -17.4762 1.19617 3.97077 -4.47292
201 1 -17.5681 3.71017 1.43286 -4.4013
202 1 -16.207 0.251025 54.7526 -4.59983
203 1 -16.0261 2.3165 2.57251 -4.52244
204 1 -13.4523 0.0477827 2.24139 -4.60616
205 1 -13.4229 2.63939 -0.486058 -4.60156
206 1 -14.8565 1.3205 0.827062 -4.55238
207 1 -14.8341 3.97283 3.72035 -4.56068
208 1 -11.9528 1.1518 3.68761 -4.59295
209 1 -12.1616 3.99244 0.873327 -4.61246
210 1 -10.7334 -0.157408 54.8786 -4.61729
211 1 -10.6678 2.61897 2.20869 -4.5972
212 1 -8.14242 -0.0514221 2.17676 -4.56312
213 1 -8.17312 2.88244 54.8993 -4.58512
214 1 -9.46949 1.31987 0.702234 -4.61414
215 1 -9.46627 4.10885 3.6089 -4.61369
216 1 -6.54968 1.23575 3.52852 -4.57734
217 1 -6.70583 3.8681 1.01117 -4.59059
218 1 -5.23648 0.196538 -0.561632 -4.51017
219 1 -5.19225 2.5182 2.1914 -4.54557
220 1 -2.68789 0.0751632 2.33479 -4.60565
221 1 -2.63835 2.93006 -0.576198 -4.54633
222 1 -3.8296 1.41383 0.763185 -4.5585
223 1 -4.11473 4.12028 3.5358 -4.58325
224 1 -1.22504 1.4968 3.45096 -4.61938
225 1 -1.23364 3.97572 0.903418 -4.5817
226 1 -0.130767 -0.021714 54.7783 -4.58786
227 1 0.314216 2.61694 2.03702 -4.5817
228 1 2.69339 -0.156023 2.04846 -4.56398
229 1 2.72247 2.67639 -0.592824 -4.59242
230 1 1.38758 1.09149 0.607386 -4.60799
231 1 1.46224 3.90252 3.61563 -4.58352
232 1 4.00148 1.27275 3.42835 -4.60308
233 1 4.03542 4.05415 0.840228 -4.63341
234 1 5.38484 0.114175 54.7888 -4.55864
235 1 5.43897 2.77899 2.24859 -4.6214
236 1 8.09184 0.117098 2.15987 -4.5757
237 1 8.05128 2.88288 -0.512152 -4.5595
238 1 6.71099 1.39219 0.837707 -4.59751
239 1 6.83865 4.19487 3.63591 -4.61174
240 1 9.38133 1.65718 3.39043 -4.56361
241 1 9.51929 4.36679 0.720192 -4.6177
242 1 10.7398 0.0397019 54.8818 -4.58527
243 1 10.8713 2.81417 1.98837 -4.61213
244 1 13.3923 0.0664101 2.07946 -4.61004
245 1 13.4151 2.58083 54.6338 -4.56938
246 1 12.1661 1.30184 0.591278 -4.56309
247 1 12.036 4.33334 3.30238 -4.54567
248 1 14.5997 1.49018 3.53501 -4.56688
249 1 14.7713 4.16451 0.412313 -4.53247
250 1 15.7977 0.294611 -0.501325 -4.57463
251 1 15.8835 2.98323 2.08853 -4.41084
252 1 18.5999 0.0764929 2.04789 -4.62668
253 1 18.2461 2.36312 54.291 -4.40807
254 1 17.3278 1.66423 0.797325 -4.54505
255 1 17.4259 4.27568 3.26627 -4.87285
256 1 20.1842 0.996501 3.53727 -4.36601
257 1 20.1032 3.60256 -0.373651 -4.37902
258 1 20.4318 1.28812 54.4702 -3.79954
259 1 -18.7703 5.38911 2.49989 -4.48508
260 1 -18.4739 8.21787 54.1721 -4.48202
261 1 -18.9493 6.37929 0.180053 -4.14333
262 1 -17.3622 6.82635 3.59318 -4.69708
263 1 -17.3444 9.32161 0.536803 -3.49265
264 1 -16.7629 5.25997 -0.287779 -5.34236
265 1 -15.9859 8.06482 2.06218 -4.65952
266 1 -13.5623 5.29532 2.23588 -4.57038
267 1 -13.7275 8.04991 -0.494883 -4.55988
268 1 -14.918 6.40168 0.771251 -4.29758
269 1 -14.6014 9.20542 3.63732 -4.51689
270 1 -12.232 6.72932 3.63249 -4.60245
271 1 -12.1095 9.32825 0.642779 -4.56728
272 1 -10.9141 5.42314 -0.562888 -4.60096
273 1 -10.8414 7.98916 2.19034 -4.603
274 1 -8.08099 5.38225 2.24138 -4.56136
275 1 -8.25341 8.10863 -0.310609 -4.58876
276 1 -9.53567 6.61615 0.967519 -4.55426
277 1 -9.25539 9.19053 3.49891 -4.60101
278 1 -6.69314 6.48587 3.77224 -4.5935
279 1 -6.63289 9.45456 0.931122 -4.57993
280 1 -5.44841 5.29736 -0.411271 -4.64225
281 1 -5.42482 7.98969 2.34434 -4.60966
282 1 -2.53183 5.29232 2.3638 -4.57732
283 1 -2.75638 7.86531 -0.435074 -4.60142
284 1 -4.01389 6.54958 1.01411 -4.62541
285 1 -3.92746 9.32774 3.67745 -4.6196
286 1 -1.21155 6.81036 3.53717 -4.6156
287 1 -1.36039 9.34349 0.848423 -4.60166
288 1 0.0215108 5.35406 -0.496915 -4.59445
289 1 0.193646 8.11547 2.19743 -4.62442
290 1 2.7441 5.29596 2.28033 -4.60076
291 1 2.61816 8.08701 54.9446 -4.58031
292 1 1.43235 6.60816 0.771435 -4.59146
293 1 1.74744 9.39284 3.46206 -4.5873
294 1 4.3385 6.63062 3.55005 -4.5311
295 1 4.04339 9.42231 0.658233 -4.58659
296 1 5.38076 5.50323 -0.515615 -4.57994
297 1 5.41862 8.28723 2.19893 -4.59064
298 1 8.19456 5.62891 2.23777 -4.55394
299 1 8.08319 8.08587 54.7633 -4.56004
300 1 6.79403 7.08003 0.757611 -4.54434
301 1 6.81505 9.69205 3.49837 -4.63944
302 1 9.46226 6.97443 3.60597 -4.62736
303 1 9.3943 9.42048 0.574755 -4.55974
304 1 10.9038 5.53149 54.7426 -4.55872
305 1 10.7261 8.3151 2.1662 -4.32833
306 1 13.4009 5.55954 1.74464 -4.59303
307 1 13.3857 7.96223 54.4727 -4.32774
308 1 12.113 7.1279 0.619389 -4.53788
309 1 12.4239 9.73682 3.47342 -4.91491
310 1 14.5713 7.04851 3.1603 -4.39584
311 1 15.0074 9.29374 0.070682 -4.75617
312 1 16.2673 5.28996 54.513 -4.46851
313 1 16.2944 8.10265 1.79166 -4.76377
314 1 18.8872 4.74395 1.36458 -4.09921
315 1 18.8172 7.12607 54.0175 -3.74711
316 1 17.7339 6.57833 0.363151 -4.49639
317 1 17.3102 8.95947 3.92272 -3.63728
318 1 19.3892 5.66528 3.45835 -4.08667
319 1 -16.4257 13.0212 4.53003 -4.16838
320 1 -16.0531 10.9528 -0.463057 -4.6572
321 1 -15.7633 13.6961 2.22109 -4.17505
322 1 -13.2595 10.5469 2.24839 -4.56921
323 1 -13.3882 13.2544 -0.37127 -4.69772
324 1 -14.5813 11.9513 1.09952 -4.61309
325 1 -14.1997 14.2047 4.15014 -4.72768
326 1 -11.8795 11.8588 3.59051 -4.52977
327 1 -12.3973 14.8853 0.911827 -4.66675
328 1 -10.6263 10.6403 -0.543274 -4.5908
329 1 -10.8944 13.3714 2.05951 -4.55105
330 1 -8.20911 10.6926 2.06507 -4.55852
331 1 -8.03846 13.5673 54.742 -4.5717
332 1 -9.32803 12.2281 0.718478 -4.53832
333 1 -9.42446 14.4502 3.50888 -4.53892
334 1 -6.73598 11.8767 3.36192 -4.59216
335 1 -6.43473 14.6122 0.463648 -4.54932
336 1 -5.24725 10.7941 -0.357932 -4.57361
337 1 -5.33204 13.4081 2.16352 -4.58175
338 1 -2.67086 10.7005 2.24262 -4.58844
339 1 -2.49179 13.4667 -0.397942 -4.5812
340 1 -3.89311 12.107 0.962007 -4.56025
341 1 -3.93605 14.5697 3.5643 -4.56851
342 1 -1.12741 11.7896 3.60623 -4.5807
343 1 -1.24261 14.7536 1.03762 -4.54378
344 1 -0.0413785 10.6454 -0.593805 -4.58519
345 1 0.0333847 13.2735 2.20654 -4.60647
346 1 2.83932 10.8756 1.97026 -4.6046
347 1 2.86178 13.6569 -0.610371 -4.56167
348 1 1.46527 12.1222 0.573415 -4.59174
349 1 1.51886 14.5622 3.59659 -4.6121
350 1 4.24918 12.2103 3.33224 -4.58726
351 1 4.18954 14.8357 0.805589 -4.47567
352 1 5.40529 10.861 -0.47756 -4.57275
353 1 5.76479 13.6983 2.35783 -4.44852
354 1 8.17621 10.8805 1.95147 -4.62108
355 1 8.16738 13.4214 54.6004 -4.52792
356 1 6.82949 12.3305 0.692948 -4.5938
357 1 6.90669 14.9543 4.05985 -4.566
358 1 9.49088 12.3044 3.32059 -4.35115
359 1 9.28621 14.9605 0.309197 -4.43314
360 1 10.6522 10.8892 54.5978 -4.38289
361 1 10.7386 13.7707 1.74101 -4.81029
362 1 13.0922 10.4391 1.22998 -4.22211
363 1 13.2136 13.4465 54.0679 -4.28555
364 1 12.1407 12.3845 0.303901 -4.74492
365 1 11.5954 14.9237 3.7144 -4.20124
366 1 14.1059 11.4302 4.13793 -4.3398
367 1 13.9934 13.8283 0.791586 -4.16778
368 1 16.4228 10.7157 54.3743 -4.32629
369 1 14.7985 11.843 1.87836 -4.65851
370 1 16.7531 10.5022 1.16991 -4.05875
371 1 -14.2883 15.559 2.22677 -4.19048
372 1 -13.1177 16.3792 4.174 -4.15735
373 1 -9.82989 17.0696 54.4298 -4.3728
374 1 -8.08545 15.5692 1.90843 -4.63448
375 1 -8.01671 18.4579 -0.373694 -4.13805
376 1 -9.36063 17.366 1.22575 -4.38873
377 1 -6.66251 16.749 3.3454 -4.71656
378 1 -7.95814 19.3122 1.84232 -4.22838
379 1 -5.04583 16.1489 54.8864 -4.61065
380 1 -5.66837 18.4545 2.16872 -4.64484
381 1 -2.75827 16.0509 2.2673 -4.58106
382 1 -2.40346 18.6994 -0.505856 -4.62806
383 1 -3.9632 17.4712 0.861615 -4.49285
384 1 -4.44964 19.3523 3.9517 -3.63941
385 1 -1.42576 17.3177 3.6418 -4.40693
386 1 -0.620142 19.7969 0.554584 -3.68639
387 1 0.206141 16.0663 -0.574969 -4.49326
388 1 0.128674 18.3659 2.27698 -4.71115
389 1 2.82642 16.0515 2.25221 -4.6082
390 1 3.09753 19.0603 -0.0496387 -4.41853
391 1 1.6873 17.434 0.864534 -4.59646
392 1 1.44352 19.7312 3.6464 -4.58642
393 1 4.11444 17.3789 3.68625 -4.59466
394 1 3.20548 20.367 2.09735 -4.29529
395 1 4.9555 16.2757 54.5889 -4.4254
396 1 5.22591 19.1182 2.55399 -4.33662
397 1 7.87151 16.5949 1.22186 -4.53491
398 1 9.22097 18.2471 0.102448 -4.44594
399 1 6.05284 17.7597 0.391838 -4.33516
400 1 5.71079 19.9545 4.77133 -3.59868
401 1 8.31408 16.719 3.59263 -4.57795
402 1 10.4128 15.7999 54.0443 -4.55227
403 1 12.3583 15.5275 1.51916 -4.32877
404 1 11.4076 17.179 0.0198161 -3.6714
405 1 1.49389 20.7913 0.329333 -4.30038
406 1 -12.9806 -16.7225 4.57003 -4.16742
407 1 -7.91744 -18.6098 4.90254 -3.56018
408 1 -9.348 -17.3361 9.305 -3.71802
409 1 -5.93822 -19.9279 10.2551 -3.7615
410 1 -6.64156 -17.5574 6.61298 -4.53806
411 1 -5.38429 -19.0563 7.97153 -4.60363
412 1 -2.7608 -19.2074 5.11726 -4.48795
413 1 -3.18518 -19.9174 7.36339 -3.61716
414 1 -4.40867 -17.3632 9.2212 -4.62103
415 1 -1.43809 -20.0008 9.01299 -4.56058
416 1 -1.53362 -17.565 6.24774 -4.64255
417 1 1.02461 -21.3004 3.14014 -3.84747
418 1 0.0659439 -18.886 7.50292 -4.60895
419 1 2.68214 -19.0147 4.66469 -4.63263
420 1 1.07839 -20.1826 5.80995 -4.0974
421 1 1.3592 -17.3764 8.80134 -4.47492
422 1 5.19034 -19.5801 9.60878 -3.93223
423 1 3.94807 -17.6353 6.18914 -4.46806
424 1 5.65409 -18.4695 7.58187 -4.69676
425 1 8.38688 -18.4289 4.16106 -4.45993
426 1 7.5051 -19.098 6.31247 -3.46255
427 1 6.8848 -17.0131 8.91128 -4.70504
428 1 9.43349 -17.6734 6.08766 -4.42945
429 1 13.36 -16.2629 9.72484 -4.09853
430 1 -17.5497 -11.5391 7.1532 -3.6269
431 1 -15.7807 -13.0348 7.4656 -3.77665
432 1 -13.4538 -15.5187 6.42168 -4.16838
433 1 -13.2764 -13.461 5.01007 -4.70036
434 1 -15.4239 -14.5325 5.78402 -4.28635
435 1 -14.3348 -11.9745 8.92266 -4.74397
436 1 -12.1528 -14.8887 8.59127 -4.35628
437 1 -12.0309 -11.9433 6.27347 -4.49392
438 1 -10.647 -16.5517 5.00239 -4.21414
439 1 -10.6632 -13.3534 7.6227 -4.63393
440 1 -8.13391 -15.9184 7.74347 -4.62073
441 1 -7.85904 -13.4663 5.12037 -4.59466
442 1 -9.52939 -14.8435 6.21586 -4.51748
443 1 -9.41504 -12.0544 9.16663 -4.56318
444 1 -6.80863 -14.7301 9.16731 -4.60185
445 1 -6.64236 -11.9977 6.49459 -4.60737
446 1 -5.28353 -16.1937 5.23268 -4.60611
447 1 -5.31037 -13.4072 7.90102 -4.63912
448 1 -2.983 -16.1781 7.71038 -4.55917
449 1 -2.5703 -13.3952 4.82148 -4.59499
450 1 -4.02781 -14.6192 6.31302 -4.60091
451 1 -3.84986 -12.119 9.29439 -4.58535
452 1 -1.43777 -15.0166 9.03349 -4.55443
453 1 -1.31319 -12.1465 6.29355 -4.61953
454 1 0.0158762 -16.2368 5.05426 -4.56675
455 1 -0.165 -13.46 7.89354 -4.55439
456 1 2.68619 -16.0564 7.4641 -4.60276
457 1 2.46933 -13.425 5.04745 -4.60128
458 1 1.16145 -14.6825 6.43156 -4.60651
459 1 1.21101 -11.9434 9.05491 -4.59212
460 1 3.73558 -14.6512 9.06698 -4.61081
461 1 3.99153 -12.1741 6.42627 -4.61865
462 1 5.32736 -16.2544 4.79558 -4.59175
463 1 5.35555 -13.525 7.79469 -4.61395
464 1 8.40273 -15.9884 7.37291 -4.59729
465 1 7.87291 -13.3372 5.21106 -4.57094
466 1 6.59271 -14.8918 6.31878 -4.56106
467 1 6.64453 -11.9362 9.00167 -4.58133
468 1 9.5437 -14.7176 9.00602 -4.54984
469 1 9.43252 -11.987 6.33929 -4.60818
470 1 10.7347 -16.1844 4.75276 -4.44845
471 1 10.8595 -13.4462 7.58727 -4.60937
472 1 13.9566 -15.4472 7.62651 -4.12411
473 1 13.7225 -13.385 4.78275 -4.62443
474 1 12.2366 -14.6963 6.12732 -4.47287
475 1 11.9717 -11.9599 9.1548 -4.44496
476 1 14.2934 -14.0692 9.66018 -4.71971
477 1 14.8513 -11.9154 6.34071 -4.4574
478 1 15.6786 -13.8548 7.52893 -4.15181
479 1 16.5182 -13.1272 9.69117 -4.17793
480 1 -18.6247 -7.39896 5.05229 -3.81291
481 1 -19.2775 -6.55211 10.2715 -3.45624
482 1 -17.4888 -10.0712 8.99335 -4.63045
483 1 -17.2177 -6.69747 6.88021 -4.65097
484 1 -16.4786 -10.6398 5.11633 -4.44156
485 1 -16.0729 -8.41252 7.9525 -4.58593
486 1 -13.3351 -10.3459 7.51164 -4.57406
487 1 -13.467 -7.97373 4.64032 -4.57868
488 1 -14.8664 -9.26542 6.09727 -4.62237
489 1 -14.7339 -6.93306 9.2808 -4.57859
490 1 -12.1392 -9.31342 9.21945 -4.54123
491 1 -12.2915 -6.73939 6.21416 -4.54788
492 1 -10.6456 -10.567 4.98377 -4.58423
493 1 -10.7492 -8.04469 7.67501 -4.57486
494 1 -7.90276 -10.6462 7.86962 -4.56033
495 1 -7.94132 -8.02529 4.95007 -4.61035
496 1 -9.25242 -9.46134 6.45308 -4.55941
497 1 -9.48904 -6.6413 9.09791 -4.6145
498 1 -6.48783 -9.0917 9.17014 -4.52306
499 1 -6.79105 -6.49628 6.26504 -4.56834
500 1 -5.23847 -10.7064 5.08044 -4.59022
501 1 -5.27318 -7.82259 7.54003 -4.60142
502 1 -2.77801 -10.7742 7.56168 -4.58436
503 1 -2.52929 -7.82098 4.78462 -4.57527
504 1 -3.87896 -9.18006 6.20262 -4.58641
505 1 -4.11886 -6.44493 9.06523 -4.5657
506 1 -1.42772 -9.32403 8.93819 -4.62447
507 1 -1.43688 -6.46854 6.27501 -4.57829
508 1 -0.018581 -10.5986 5.12064 -4.59402
509 1 -0.102358 -7.86974 7.62887 -4.6062
510 1 2.73156 -10.7612 7.74834 -4.60191
511 1 2.86998 -8.02415 4.92576 -4.63231
512 1 1.49087 -9.22242 6.45032 -4.58662
513 1 1.07716 -6.63208 9.18927 -4.5691
514 1 4.14097 -9.26622 8.89086 -4.57954
515 1 4.12521 -6.59238 6.33136 -4.57624
516 1 5.25125 -10.9219 4.93178 -4.62248
517 1 5.48666 -8.04674 7.52039 -4.59569
518 1 8.16746 -10.6463 7.79628 -4.56557
519 1 8.07501 -8.10449 4.76528 -4.61712
520 1 6.76564 -9.58381 6.16605 -4.60423
521 1 6.58559 -6.5182 8.94882 -4.60824
522 1 9.37524 -9.15388 9.00791 -4.57958
523 1 9.48709 -6.9514 6.25162 -4.55802
524 1 10.7958 -10.5984 5.02194 -4.58919
525 1 11.0049 -7.95007 7.85929 -4.57532
526 1 13.4666 -10.7399 7.79134 -4.53663
527 1 13.3717 -7.67658 5.02591 -4.58286
528 1 12.2366 -9.21555 6.34111 -4.58198
529 1 12.3007 -6.42428 9.09957 -4.59884
530 1 14.8966 -9.33599 9.04603 -4.57971
531 1 14.9249 -6.50262 6.31954 -4.58691
532 1 16.1589 -10.5925 4.68329 -4.60609
533 1 16.2428 -7.86579 7.77716 -4.63277
534 1 18.656 -7.72449 4.9808 -3.85432
535 1 17.2149 -9.18223 6.12769 -3.78753
536 1 17.867 -6.60562 9.19638 -4.63588
537 1 19.3759 -5.80047 6.09472 -3.62067
538 1 -18.836 -5.49228 8.12223 -4.50413
539 1 -18.1998 -2.34144 4.87879 -4.45011
540 1 -19.0607 -3.9177 6.36373 -4.49459
541 1 -20.7315 -2.2756 6.74954 -3.85487
542 1 -17.3849 -4.08809 9.23676 -4.64468
543 1 -17.2714 -1.20217 6.73885 -4.50956
544 1 -16.1316 -5.46734 5.16781 -4.38574
545 1 -15.8948 -2.69619 8.04944 -4.57617
546 1 -13.5324 -5.50915 7.73178 -4.56035
547 1 -13.577 -2.68523 4.85197 -4.53083
548 1 -14.8121 -3.98283 6.4707 -4.59127
549 1 -14.4941 -1.31439 9.41548 -4.59958
550 1 -12.1508 -4.18909 9.0863 -4.58561
551 1 -12.2416 -1.51217 6.36505 -4.54854
552 1 -10.7885 -5.48676 4.94604 -4.59823
553 1 -10.7765 -2.75036 7.93723 -4.56238
554 1 -8.03204 -5.37439 7.76972 -4.57784
555 1 -8.17692 -2.8301 4.95752 -4.57089
556 1 -9.46177 -4.08603 6.42708 -4.62045
557 1 -9.41319 -1.25123 9.07484 -4.572
558 1 -6.73886 -3.8568 9.15689 -4.59845
559 1 -6.66237 -1.41126 6.35836 -4.60122
560 1 -5.36024 -5.13984 4.79043 -4.54177
561 1 -5.25155 -2.6578 7.76562 -4.58912
562 1 -2.53377 -5.07211 7.84183 -4.57931
563 1 -2.60567 -2.402 4.9895 -4.61847
564 1 -3.92598 -3.89838 6.33101 -4.59345
565 1 -4.21359 -1.21156 9.20855 -4.55652
566 1 -1.34328 -3.66338 9.34492 -4.5906
567 1 -1.11651 -1.18345 6.45582 -4.56785
568 1 0.0484308 -5.17484 4.88347 -4.61375
569 1 0.098309 -2.63377 7.82413 -4.55115
570 1 2.71895 -5.57466 7.84026 -4.5538
571 1 2.62855 -2.75291 4.90407 -4.60377
572 1 1.36467 -4.06429 6.46469 -4.57108
573 1 1.25003 -1.16458 9.13292 -4.60345
574 1 3.88147 -3.9015 9.05758 -4.61164
575 1 4.07967 -1.22178 6.09549 -4.60054
576 1 5.61406 -5.43484 4.86541 -4.60547
577 1 5.29432 -2.84278 7.44165 -4.59717
578 1 8.21121 -5.4146 7.68131 -4.59667
579 1 8.10136 -2.55059 4.8417 -4.5695
580 1 6.91722 -4.06867 6.19109 -4.60487
581 1 6.62828 -1.52395 8.81711 -4.56761
582 1 9.6912 -3.96633 8.98679 -4.53719
583 1 9.47869 -1.08841 6.13462 -4.57402
584 1 10.7344 -5.29445 5.04172 -4.61712
585 1 10.7773 -2.4546 7.57577 -4.60326
586 1 13.5148 -5.07855 7.57554 -4.63885
587 1 13.4263 -2.58476 4.71325 -4.57679
588 1 12.0653 -3.8371 6.2171 -4.58341
589 1 11.907 -0.99133 9.16667 -4.5725
590 1 14.9694 -3.86492 9.06165 -4.56443
591 1 14.5685 -1.44854 6.324 -4.56009
592 1 16.2142 -5.25857 4.83242 -4.47304
593 1 16.178 -2.6465 7.45514 -4.39952
594 1 18.8472 -4.72624 8.12103 -3.85942
595 1 19.094 -2.52388 4.33914 -4.38368
596 1 17.7821 -3.89711 5.99542 -4.96858
597 1 17.2451 -0.944981 8.78797 -4.28019
598 1 20.1103 -2.29158 9.15043 -3.85886
599 1 20.2245 -0.515774 5.30145 -4.31607
600 1 -20.6048 -0.0995705 5.66709 -4.06663
601 1 -18.4322 0.313819 8.01698 -4.70062
602 1 -18.2733 2.8076 5.4434 -4.60128
603 1 -19.9057 1.78991 6.93068 -4.43259
604 1 -19.3991 3.61744 8.4262 -4.28671
605 1 -17.0333 1.51877 9.3363 -4.66099
606 1 -17.532 4.48365 6.99877 -4.92801
607 1 -15.9492 -0.021863 5.34376 -4.60652
608 1 -15.9194 2.88284 7.69109 -4.42481
609 1 -13.1717 -0.0128568 7.89913 -4.60805
610 1 -13.3873 2.53465 4.88268 -4.60774
611 1 -14.4977 1.33932 6.51077 -4.55878
612 1 -14.636 4.31502 9.12452 -4.62078
613 1 -11.7512 1.36717 9.23919 -4.57652
614 1 -12.1705 3.78699 6.42421 -4.59749
615 1 -10.7378 -0.139468 5.21172 -4.57319
616 1 -10.4864 2.58191 7.59254 -4.55189
617 1 -8.08845 0.0725131 7.61117 -4.61013
618 1 -7.87586 2.79609 4.70213 -4.576
619 1 -9.25237 1.43391 6.06788 -4.54156
620 1 -9.41544 4.02518 9.1853 -4.58385
621 1 -6.63307 1.34449 9.05166 -4.60334
622 1 -6.7226 3.97667 6.40594 -4.59313
623 1 -5.29429 0.0777494 5.15947 -4.59684
624 1 -5.2975 2.7483 7.69774 -4.61185
625 1 -2.61433 -0.0189453 7.82518 -4.5993
626 1 -2.58103 2.88753 4.84254 -4.61963
627 1 -3.82801 1.4429 6.36251 -4.58997
628 1 -4.05012 4.26574 8.99602 -4.5934
629 1 -1.32828 1.37048 9.16679 -4.62061
630 1 -1.2216 4.2097 6.20686 -4.58745
631 1 -0.0262808 0.138691 4.92047 -4.57288
632 1 -0.0404652 2.82606 7.75389 -4.59662
633 1 2.66925 0.0189497 7.59555 -4.59512
634 1 2.84842 2.64201 5.08869 -4.60351
635 1 1.28579 1.51532 6.40264 -4.63917
636 1 1.48454 4.13567 9.12297 -4.60049
637 1 4.04933 1.2863 9.04895 -4.6163
638 1 4.19806 4.01433 6.47919 -4.56086
639 1 5.5839 0.0585141 4.69235 -4.60247
640 1 5.45768 2.59444 7.77002 -4.58196
641 1 7.96321 -0.0278592 7.59153 -4.62334
642 1 8.26058 2.87405 4.96995 -4.60003
643 1 6.76803 1.43505 6.20422 -4.6051
644 1 6.65943 4.09438 9.11835 -4.56226
645 1 8.982 1.43869 9.05366 -4.56865
646 1 9.44102 4.23411 6.53233 -4.56263
647 1 10.8984 0.373523 4.69617 -4.52487
648 1 10.6426 2.60479 7.79026 -4.58845
649 1 13.3904 0.121013 7.64734 -4.53609
650 1 13.2293 3.00081 4.72582 -4.61
651 1 12.1154 1.54035 6.18745 -4.54439
652 1 12.0349 4.05728 8.97824 -4.56001
653 1 14.3449 1.50993 9.31422 -4.56282
654 1 14.7138 4.10368 6.23743 -4.57612
655 1 15.8078 -0.016624 4.82156 -4.62334
656 1 15.7559 2.60473 7.71732 -4.29949
657 1 18.6173 -0.136613 6.90391 -4.58394
658 1 18.3477 2.32538 4.26076 -4.52071
659 1 17.1882 1.42833 6.02709 -4.5931
660 1 17.458 3.98825 8.83174 -4.9028
661 1 19.8665 1.55487 7.95411 -4.58596
662 1 19.8562 3.81031 5.11571 -4.48062
663 1 21.0627 1.75982 5.82781 -4.06365
664 1 -19.9461 5.92857 8.52385 -4.17939
665 1 -18.3234 7.94775 5.33205 -3.56286
666 1 -19.1947 5.92833 6.22881 -4.46986
667 1 -17.8924 6.88083 9.26356 -4.84738
668 1 -17.3618 9.73461 6.49672 -4.54663
669 1 -16.3012 5.31526 4.95266 -4.35641
670 1 -16.2535 8.17602 7.87727 -4.42795
671 1 -13.2766 5.45144 7.63671 -4.5368
672 1 -13.3421 8.07961 5.29533 -4.52667
673 1 -15.0109 6.73826 6.38893 -4.55654
674 1 -14.775 9.19314 9.34395 -4.56142
675 1 -12.0012 6.64773 9.13912 -4.56591
676 1 -11.6433 8.9854 6.53729 -4.51604
677 1 -11.0178 5.1942 4.93986 -4.58828
678 1 -10.3071 7.73691 7.95105 -4.553
679 1 -8.06572 5.26552 7.77932 -4.58247
680 1 -7.97787 7.95024 4.9682 -4.57205
681 1 -9.38958 6.41572 6.16095 -4.57227
682 1 -9.38072 9.48097 9.33104 -4.55558
683 1 -6.82821 6.73096 9.17454 -4.58202
684 1 -6.76622 9.44388 6.42643 -4.57241
685 1 -5.11891 5.36752 5.25406 -4.56105
686 1 -5.44102 7.96529 7.67719 -4.5887
687 1 -2.46576 5.44266 7.73485 -4.60325
688 1 -2.43809 8.07289 5.12221 -4.5874
689 1 -3.8093 6.84059 6.52028 -4.54144
690 1 -4.08175 9.39298 9.07374 -4.60159
691 1 -1.26317 6.78722 9.30009 -4.57914
692 1 -0.986874 9.45711 6.40841 -4.58723
693 1 0.20183 5.52625 4.87936 -4.63109
694 1 0.174716 8.09171 7.84308 -4.56905
695 1 2.60004 5.42099 7.4771 -4.58988
696 1 3.05976 8.04921 4.84589 -4.61155
697 1 1.44494 6.98657 6.23995 -4.55012
698 1 1.45922 9.40112 9.18057 -4.60138
699 1 3.98014 6.82031 8.73787 -4.55582
700 1 4.41243 9.51195 6.19919 -4.59805
701 1 5.52748 5.45785 5.03124 -4.5411
702 1 5.63775 8.15888 7.66332 -4.6263
703 1 7.89697 5.49596 7.75374 -4.60455
704 1 8.1998 8.46198 4.93251 -4.54134
705 1 6.98937 6.98252 6.1554 -4.52861
706 1 6.83003 9.77289 8.98755 -4.4982
707 1 9.45942 6.75339 9.0206 -4.58934
708 1 9.72127 9.84224 5.9927 -4.50641
709 1 10.783 5.60559 4.86401 -4.52695
710 1 10.4892 8.1152 7.43492 -4.54035
711 1 13.1888 5.46219 7.50173 -4.58695
712 1 13.6751 8.29763 4.91177 -4.2132
713 1 12.1264 6.99623 6.142 -4.61848
714 1 11.8918 9.35901 8.94526 -4.38632
715 1 14.3691 6.68397 9.19909 -4.5829
716 1 14.9353 9.47327 6.58739 -4.92566
717 1 15.7209 5.40028 4.53302 -4.22927
718 1 16.0295 7.76863 7.74231 -4.30903
719 1 18.451 4.76581 6.6962 -4.20042
720 1 19.083 7.64111 4.79501 -4.27865
721 1 17.1851 6.65785 5.85683 -4.97953
722 1 17.2356 9.27082 9.02712 -4.29076
723 1 19.2142 6.919 7.13832 -4.0381
724 1 -16.4375 11.5155 7.98436 -4.10727
725 1 -15.9882 10.653 4.74074 -4.48728
726 1 -15.8052 13.4004 6.75105 -4.25605
727 1 -13.178 10.006 7.94676 -4.40916
728 1 -12.8022 12.8013 5.55431 -3.98128
729 1 -14.4665 11.3943 6.5049 -5.04687
730 1 -14.1331 14.7045 7.81948 -4.02047
731 1 -11.7897 11.7785 8.79007 -4.59273
732 1 -11.9105 14.8691 6.65066 -5.3764
733 1 -10.5275 10.417 4.99135 -4.57983
734 1 -10.3478 13.2282 7.51593 -4.3292
735 1 -7.87101 10.7287 8.05162 -4.54122
736 1 -7.89335 13.2604 4.77984 -4.55891
737 1 -8.91486 11.7894 6.2633 -4.56721
738 1 -9.32572 14.7101 8.96231 -4.63314
739 1 -6.65793 12.2844 9.36727 -4.59946
740 1 -6.73784 14.5661 6.36413 -4.59637
741 1 -5.41934 10.7348 4.95579 -4.5902
742 1 -5.33289 13.47 7.81648 -4.56822
743 1 -2.55536 10.7005 7.78306 -4.58091
744 1 -2.62964 13.2244 4.87664 -4.57563
745 1 -4.03378 12.0873 6.47833 -4.58726
746 1 -3.71548 14.8023 9.0061 -4.59627