ITEM: TIMESTEP
188000
ITEM: NUMBER OF ATOMS
4050
ITEM: BOX BOUNDS ss ss pp
-2.0645117847845963e+01 2.1007636236545665e+01
-2.0586653353896960e+01 2.0695289320739708e+01
-2.5525700000000002e+00 5.6862569999999998e+01
ITEM: ATOMS id type x y z c_peratom
1 1 -11.9783 -15.9916 -0.845667 -4.03023
2 1 -7.49108 -17.8707 -2.15277 -4.33218
3 1 -8.96481 -17.3156 1.41968 -4.58124
4 1 -7.26166 -18.9144 1.01372 -3.6744
5 1 -6.1743 -16.4147 -1.00713 -4.66225
6 1 -5.223 -18.0479 0.194485 -4.5816
7 1 -2.8902 -18.1941 -2.73375 -4.57409
8 1 -4.92859 -19.1465 -1.94199 -4.03605
9 1 -3.85441 -17.2468 1.87953 -4.35965
10 1 -0.74008 -19.2319 2.21253 -4.34898
11 1 -1.69681 -16.6898 -1.31954 -4.49183
12 1 0.25629 -19.6028 -0.846182 -4.59843
13 1 -0.381168 -17.7581 0.401543 -4.56835
14 1 3.15819 -17.355 56.4452 -4.65224
15 1 2.49306 -18.9646 -1.44258 -3.74608
16 1 1.18781 -16.3539 1.30185 -4.56771
17 1 3.2204 -19.2084 0.868801 -4.33335
18 1 4.03202 -16.2067 -1.12499 -4.68046
19 1 5.32147 -17.8034 -0.039418 -4.36436
20 1 6.80144 -18.0158 -1.85684 -4.1859
21 1 9.46563 -17.3345 1.07197 -4.26075
22 1 6.38439 -16.5896 1.73875 -4.51826
23 1 8.97238 -17.0509 -1.26009 -4.14949
24 1 11.5309 -16.2391 1.75323 -3.6454
25 1 -14.4827 -12.8569 -0.16897 -4.16568
26 1 -15.0631 -14.6971 1.09564 -4.13478
27 1 -13.3803 -16.3729 1.11619 -4.20863
28 1 -12.4985 -13.0914 56.5193 -4.57774
29 1 -13.6659 -14.5834 -1.44054 -4.21659
30 1 -13.6397 -11.9515 1.78275 -4.63256
31 1 -11.4075 -14.8652 1.32885 -5.23471
32 1 -11.4455 -11.8876 -1.21744 -4.54387
33 1 -10.2713 -15.8259 56.5933 -4.32916
34 1 -10.1044 -13.1621 0.18041 -4.26846
35 1 -7.8249 -15.5508 0.479955 -4.57718
36 1 -7.7375 -12.9064 56.7723 -4.61088
37 1 -8.96744 -14.4573 -1.33721 -4.56922
38 1 -9.06317 -11.7292 1.88769 -4.51986
39 1 -6.37268 -14.3168 2.00093 -4.51283
40 1 -6.50109 -11.6417 -1.10852 -4.58693
41 1 -4.99117 -15.3046 56.5603 -4.5333
42 1 -5.31584 -13.1506 0.256251 -4.51047
43 1 -2.98137 -15.6343 0.375623 -4.46051
44 1 -2.41583 -12.6599 56.6444 -4.48177
45 1 -3.72946 -14.0532 -1.30177 -4.52981
46 1 -4.18808 -11.7446 1.85336 -4.564
47 1 -1.47095 -14.1589 1.60956 -4.54987
48 1 -1.50644 -11.6037 -0.988804 -4.50319
49 1 0.0114414 -15.7616 56.6278 -4.4654
50 1 -0.0666337 -12.935 0.232217 -4.54189
51 1 2.59128 -14.7948 0.244219 -4.50753
52 1 2.4281 -12.5574 56.5258 -4.57728
53 1 1.21516 -14.0265 -1.48375 -4.50787
54 1 1.19244 -11.5555 1.57213 -4.52011
55 1 4.05556 -13.8449 1.97089 -4.4908
56 1 3.92209 -11.617 -1.28668 -4.53455
57 1 5.29029 -14.8381 56.8076 -4.47858
58 1 5.21713 -12.7367 0.28092 -4.49491
59 1 8.01409 -15.3941 0.416615 -4.9081
60 1 7.95694 -12.5835 -2.76277 -4.51701
61 1 6.78932 -13.8332 -1.08161 -4.3836
62 1 6.56612 -11.3908 1.81804 -4.58778
63 1 8.88486 -14.0686 2.11827 -4.41965
64 1 9.04413 -11.1958 -1.02488 -4.49141
65 1 10.4222 -15.5565 -2.42713 -4.50896
66 1 9.90437 -12.4565 0.819758 -4.45013
67 1 12.698 -15.256 0.0240882 -4.56825
68 1 12.1624 -12.3723 -1.69518 -4.19085
69 1 10.9647 -13.9905 -0.674853 -4.64985
70 1 11.5732 -11.2134 2.19012 -4.56687
71 1 14.1004 -13.5037 1.02499 -4.04751
72 1 13.9784 -11.3826 -0.181489 -5.37601
73 1 15.9522 -12.9618 -0.399846 -3.96996
74 1 16.0487 -10.8993 0.871298 -4.00378
75 1 -17.5744 -7.55982 56.2643 -4.11775
76 1 -18.9904 -5.78947 3.12885 -3.49854
77 1 -16.8656 -8.65812 2.03598 -3.67701
78 1 -17.1943 -6.33282 -0.924135 -4.29271
79 1 -15.3186 -10.887 -2.1697 -3.94381
80 1 -15.6102 -7.63653 0.259207 -4.60111
81 1 -12.5328 -10.3923 0.23462 -4.45354
82 1 -13.198 -7.77402 -2.53832 -4.57253
83 1 -14.1856 -9.18372 -1.06426 -4.5818
84 1 -14.2406 -6.60691 1.85953 -4.56626
85 1 -11.4915 -9.04469 1.84803 -4.53808
86 1 -11.7871 -6.45649 -1.10182 -4.58482
87 1 -10.2564 -10.1923 -2.47434 -4.58983
88 1 -10.3619 -7.70542 0.334661 -4.61393
89 1 -7.78196 -10.3873 0.414019 -4.59621
90 1 -7.87132 -7.67658 -2.70613 -4.59221
91 1 -8.94429 -8.96227 -1.06121 -4.55606
92 1 -9.05953 -6.42114 1.87481 -4.59626
93 1 -6.42338 -9.03404 1.68553 -4.53012
94 1 -6.50932 -6.27895 -1.31058 -4.59483
95 1 -5.34631 -10.1692 56.7592 -4.54332
96 1 -5.19953 -7.57309 0.176398 -4.57444
97 1 -2.88529 -10.2112 0.517205 -4.55106
98 1 -2.62734 -7.77167 56.6494 -4.53935
99 1 -3.95478 -8.97374 -1.15915 -4.56013
100 1 -4.17318 -6.14895 1.76023 -4.56216
101 1 -1.35161 -8.82297 1.76089 -4.60931
102 1 -1.5226 -6.41289 -1.17706 -4.57031
103 1 -0.315962 -10.2437 56.9281 -4.48597
104 1 -0.0853037 -7.59027 0.158924 -4.58055
105 1 2.47954 -10.3321 0.11018 -4.58046
106 1 2.64954 -7.65292 56.7588 -4.59128
107 1 1.24168 -8.92654 -1.22957 -4.61535
108 1 1.138 -6.35886 1.72217 -4.52247
109 1 3.5418 -9.03485 1.80376 -4.56704
110 1 3.90078 -6.40618 -1.17506 -4.54672
111 1 5.10555 -10.1162 56.8336 -4.52164
112 1 4.94511 -7.63887 0.603168 -4.56034
113 1 7.76367 -9.87628 0.513901 -4.55448
114 1 7.53466 -7.4925 -2.61471 -4.51804
115 1 6.27459 -8.85882 -1.0174 -4.5326
116 1 6.32551 -6.17535 1.78859 -4.5678
117 1 9.01582 -8.64666 2.03275 -4.57154
118 1 8.78917 -6.34904 -1.03586 -4.59318
119 1 10.2837 -9.91178 -2.54677 -4.52556
120 1 10.2724 -7.45023 0.462062 -4.56404
121 1 12.7202 -9.71072 0.883048 -4.29918
122 1 13.0379 -7.46998 -2.3843 -4.55408
123 1 11.629 -8.84318 -0.978278 -4.49197
124 1 11.5153 -6.15888 1.95258 -4.47519
125 1 14.1267 -8.57897 2.24022 -4.61522
126 1 14.2974 -6.25371 -0.776386 -4.59274
127 1 15.167 -10.4881 -2.23337 -4.33226
128 1 15.627 -7.66303 0.650806 -4.56542
129 1 17.5448 -7.55487 -2.30342 -3.59997
130 1 16.7918 -9.32709 -0.840173 -4.45543
131 1 16.9146 -5.88943 1.52831 -4.16037
132 1 18.9028 -5.64474 -2.12106 -3.99203
133 1 -18.5559 -5.05373 0.786905 -4.38563
134 1 -18.2177 -2.40395 -1.91957 -4.98303
135 1 -19.6749 -3.02227 -0.086567 -4.27149
136 1 -18.6622 -1.74029 1.54762 -3.85861
137 1 -16.6553 -4.13458 1.79932 -4.49995
138 1 -16.6683 -0.845147 -1.03508 -4.42956
139 1 -15.6961 -5.09059 -2.32544 -4.61286
140 1 -15.7405 -2.44374 0.565467 -4.45075
141 1 -13.1037 -5.16587 0.484692 -4.60889
142 1 -13.1597 -2.50025 -2.57599 -4.56101
143 1 -14.4293 -3.69108 -0.895938 -4.57143
144 1 -14.4541 -1.14366 2.06809 -4.52966
145 1 -11.6248 -3.80014 1.80476 -4.54909
146 1 -11.7229 -1.1675 -1.25518 -4.56899
147 1 -10.493 -5.11214 56.8189 -4.58637
148 1 -10.5005 -2.48205 0.275676 -4.58367
149 1 -7.75496 -5.18382 0.334842 -4.57703
150 1 -7.83774 -2.35717 56.8773 -4.55082
151 1 -9.13741 -3.78025 -1.11456 -4.61799
152 1 -9.07365 -1.24367 1.62596 -4.52437
153 1 -6.60131 -3.64036 1.72633 -4.56185
154 1 -6.44989 -1.03022 -1.30604 -4.5586
155 1 -5.22545 -4.86017 56.7951 -4.56368
156 1 -5.29027 -2.26687 0.307371 -4.5447
157 1 -2.67342 -4.97086 0.286592 -4.53476
158 1 -2.80529 -2.4424 56.8319 -4.56109
159 1 -4.02605 -3.69472 -1.02682 -4.54257
160 1 -3.89693 -1.40316 2.06581 -4.49287
161 1 -1.41595 -3.86106 1.82905 -4.48981
162 1 -1.29562 -1.21271 -1.22738 -4.59899
163 1 -0.183286 -4.90855 56.9358 -4.59325
164 1 -0.0492547 -2.45787 0.416416 -4.54968
165 1 2.43865 -5.02203 0.274626 -4.57716
166 1 2.66282 -2.27573 -2.66835 -4.50371
167 1 1.31546 -3.42649 -1.15018 -4.54571
168 1 1.40149 -1.29481 1.85129 -4.6026
169 1 3.86487 -3.83146 1.73137 -4.58012
170 1 4.01533 -1.23903 -1.0498 -4.52199
171 1 5.01115 -4.9358 56.7462 -4.55527
172 1 5.26763 -2.47006 0.464073 -4.56449
173 1 7.642 -4.824 0.353732 -4.53305
174 1 7.99152 -2.42908 56.8982 -4.53749
175 1 6.42421 -3.70588 -1.19242 -4.55003
176 1 6.48693 -0.984285 1.9072 -4.54241
177 1 9.08068 -3.72566 1.85983 -4.57288
178 1 8.98687 -1.00896 -0.833227 -4.49915
179 1 10.2573 -5.10583 -2.51241 -4.57613
180 1 10.3218 -2.25254 0.514327 -4.5696
181 1 13.0388 -4.73418 0.540817 -4.50968
182 1 12.6214 -2.39727 -2.36568 -4.58667
183 1 11.3976 -3.79062 -0.905858 -4.55168
184 1 11.7215 -1.43009 2.25296 -4.53919
185 1 14.4222 -3.83584 2.20051 -4.30172
186 1 14.0329 -1.41099 -0.78951 -4.57564
187 1 15.4443 -5.12547 56.9026 -4.48037
188 1 15.5785 -2.51354 0.5898 -4.48124
189 1 18.5709 -4.89688 0.0447138 -4.57818
190 1 17.9834 -2.44782 -2.35198 -4.69798
191 1 16.756 -3.87566 -1.01178 -4.67389
192 1 16.7289 -1.20392 2.20188 -4.63646
193 1 19.1667 -2.70113 0.883424 -3.70743
194 1 19.0829 -1.02577 -0.820635 -4.03284
195 1 -19.9136 -0.894856 -1.53683 -4.31239
196 1 -19.0123 0.573147 1.7887 -4.46064
197 1 -18.3536 2.60579 -1.9661 -4.29188
198 1 -18.3766 0.597736 -0.521462 -4.45796
199 1 -18.8821 4.6579 2.94136 -3.73869
200 1 -16.9117 1.49977 2.33257 -4.56946
201 1 -17.0698 3.81776 -0.398797 -4.42592
202 1 -15.5522 0.122079 -2.75458 -4.55167
203 1 -15.4943 2.50687 0.755501 -4.47938
204 1 -12.9828 0.0712192 0.435502 -4.54472
205 1 -12.9667 2.76369 -2.37236 -4.57789
206 1 -14.3084 1.36536 -1.13355 -4.48889
207 1 -14.2489 3.93841 2.11382 -4.57645
208 1 -11.5251 1.2577 1.91237 -4.54625
209 1 -11.6617 4.00594 -0.79289 -4.5784
210 1 -10.4998 0.227234 56.6839 -4.60424
211 1 -10.3141 2.61222 0.533023 -4.55958
212 1 -7.74921 0.171313 0.27933 -4.53316
213 1 -7.70471 2.93626 56.7103 -4.59665
214 1 -9.09107 1.5595 -1.22538 -4.52616
215 1 -8.99251 3.85535 2.01009 -4.59247
216 1 -6.44649 1.12059 1.96803 -4.49687
217 1 -6.20673 3.94625 -1.12031 -4.52034
218 1 -5.02833 0.245952 56.7669 -4.5698
219 1 -5.22295 2.49461 0.392397 -4.54826
220 1 -2.53062 -0.0821865 0.36958 -4.50484
221 1 -2.50066 2.67774 56.9054 -4.53288
222 1 -3.72389 1.34122 -1.00829 -4.5955
223 1 -3.93181 3.914 1.79545 -4.60282
224 1 -1.26096 1.41101 1.80769 -4.61379
225 1 -1.07155 3.99758 -1.04118 -4.53279
226 1 0.204711 0.0886395 -2.48775 -4.52105
227 1 0.14986 2.79011 0.544889 -4.56488
228 1 2.83861 0.00202271 0.462696 -4.57925
229 1 2.54707 2.57532 56.9699 -4.56878
230 1 1.36418 1.31457 -0.852052 -4.58132
231 1 1.42616 4.18828 1.88713 -4.57154
232 1 3.91209 1.39379 2.06252 -4.53877
233 1 3.78102 4.00686 -1.05045 -4.60333
234 1 5.2407 0.0562081 -2.52909 -4.56383
235 1 5.14996 2.84615 0.574265 -4.53096
236 1 7.5657 0.417672 0.454088 -4.54527
237 1 7.89235 2.66804 -2.44579 -4.54595
238 1 6.2624 1.61842 -1.04795 -4.5456
239 1 6.57228 4.1244 1.91243 -4.55208
240 1 9.04682 1.30884 2.08262 -4.55933
241 1 8.90729 4.00485 -0.823907 -4.52763
242 1 10.3907 0.204544 -2.40267 -4.5481
243 1 10.2951 2.75076 0.707455 -4.59229
244 1 12.8683 -0.0358636 0.761974 -4.59321
245 1 12.897 2.76713 -2.27874 -4.63067
246 1 11.6151 1.35894 -0.799541 -4.53713
247 1 11.8275 4.24385 1.93026 -4.55658
248 1 14.2198 1.32426 2.15223 -4.55772
249 1 14.3516 3.96959 -0.953377 -4.49353
250 1 15.351 -0.0372766 -2.16902 -4.50547
251 1 15.4759 2.78189 0.835882 -4.29653
252 1 18.1069 0.145644 0.860353 -4.5255
253 1 17.3989 2.66171 -1.6447 -4.48495
254 1 16.3058 1.00081 -0.308884 -4.45068
255 1 17.1239 4.21581 1.682 -4.84011
256 1 19.5259 0.91646 2.80349 -4.19501
257 1 19.4608 3.58091 -2.27042 -4.14545
258 1 19.0605 1.2636 56.7486 -3.93554
259 1 -18.0972 5.53062 0.979867 -4.12432
260 1 -17.6753 8.24015 56.0182 -4.57789
261 1 -18.1162 6.61113 -1.73542 -3.91687
262 1 -16.6207 6.9062 2.10589 -4.73136
263 1 -16.6941 9.27698 -1.41362 -3.66315
264 1 -16.2193 5.21491 -2.23161 -5.35449
265 1 -15.5916 8.04857 0.32796 -4.53868
266 1 -13.0077 5.24408 0.626505 -4.57822
267 1 -13.1219 7.73568 -2.45123 -4.51846
268 1 -14.4902 6.34294 -0.857017 -4.29552
269 1 -14.2702 9.31024 2.06068 -4.43908
270 1 -11.6688 6.59627 2.09913 -4.55364
271 1 -11.7809 9.1827 -1.05939 -4.5367
272 1 -10.3346 5.28137 -2.32655 -4.5604
273 1 -10.5299 7.73466 0.354091 -4.61143
274 1 -7.61984 5.05229 0.404711 -4.58919
275 1 -7.85273 7.60275 56.6503 -4.53426
276 1 -8.92006 6.5259 -0.957634 -4.55241
277 1 -8.93615 8.87613 1.54705 -4.5304
278 1 -6.30016 6.41201 1.72591 -4.60832
279 1 -6.60338 8.89957 -1.30579 -4.55917
280 1 -5.13024 5.41263 -2.70646 -4.48982
281 1 -5.26668 7.96529 0.32609 -4.53829
282 1 -2.45679 5.13756 0.353154 -4.52322
283 1 -2.70248 7.96846 56.8673 -4.55477
284 1 -3.88229 6.52332 -0.988443 -4.5743
285 1 -3.7441 9.02353 1.72843 -4.56297
286 1 -1.24586 6.30006 1.95608 -4.55624
287 1 -1.22901 9.12638 -1.02331 -4.59254
288 1 -0.108041 5.32142 -2.70762 -4.57009
289 1 0.0347469 7.7271 0.487562 -4.54901
290 1 2.60764 5.4856 0.393784 -4.51666
291 1 2.6788 7.99025 56.9403 -4.53655
292 1 1.29264 6.57821 -1.28042 -4.56605
293 1 1.21411 9.13205 2.02084 -4.57117
294 1 3.97275 6.57272 1.88708 -4.54914
295 1 3.83264 9.41345 -0.796484 -4.54433
296 1 5.10988 5.32611 56.7887 -4.55942
297 1 5.29083 8.06412 0.478939 -4.5819
298 1 7.90576 5.62605 0.534322 -4.54075
299 1 7.5605 7.96243 -2.4446 -4.56444
300 1 6.34532 6.61764 -0.989909 -4.56895
301 1 6.59303 9.16485 2.11174 -4.53489
302 1 9.25777 6.86074 2.05004 -4.56058
303 1 9.0243 9.09455 -0.872989 -4.50887
304 1 10.0675 5.20231 -2.47118 -4.55642
305 1 10.56 8.18316 0.582132 -4.32834
306 1 13.0263 5.56165 0.334935 -4.58818
307 1 12.4401 7.29046 56.472 -4.26714
308 1 11.3873 6.68099 -1.00799 -4.4134
309 1 12.0371 9.61979 1.90541 -4.86313
310 1 14.3886 6.64945 1.92416 -4.52794
311 1 13.874 8.83908 -1.79448 -4.38752
312 1 15.3531 5.25804 56.6368 -4.3433
313 1 15.8806 8.01709 0.56891 -4.6485
314 1 18.8178 4.8298 0.20874 -3.92013
315 1 17.3403 6.46675 56.5659 -4.62658
316 1 17.4254 6.59134 -0.553505 -3.71307
317 1 16.9189 9.02566 2.46308 -3.64458
318 1 19.0294 5.51408 2.51976 -4.14712
319 1 -15.9281 12.968 3.12469 -4.13532
320 1 -15.0742 10.7234 -2.37053 -4.73364
321 1 -15.0567 13.5466 0.764762 -4.10022
322 1 -12.6942 10.4374 0.673098 -4.58237
323 1 -12.8562 13.3595 -2.28544 -4.86221
324 1 -13.8981 11.9809 -0.683373 -4.37638
325 1 -13.6459 13.962 2.70595 -4.79465
326 1 -11.3214 11.6593 2.13075 -4.45823
327 1 -11.8803 14.655 -0.444904 -4.19902
328 1 -10.2378 10.3345 56.8905 -4.57187
329 1 -10.5335 12.7685 0.286871 -4.44631
330 1 -7.99157 10.3705 0.0250081 -4.56433
331 1 -8.01834 12.8789 56.367 -4.45485
332 1 -9.07599 11.8841 -1.33843 -4.37444
333 1 -9.23045 14.0563 1.69488 -4.51784
334 1 -6.50938 11.4983 1.51969 -4.5489
335 1 -6.74248 14.2476 -1.72638 -4.54382
336 1 -5.29186 10.4132 56.756 -4.5716
337 1 -5.58019 13.0256 -0.0261055 -4.49183
338 1 -2.58516 10.5383 0.269171 -4.59807
339 1 -2.52329 13.0912 56.7465 -4.58544
340 1 -3.86455 11.7434 -1.26573 -4.58899
341 1 -4.21329 14.0328 1.67285 -4.44291
342 1 -1.36882 11.8375 1.7788 -4.58037
343 1 -1.36117 14.4203 -1.11262 -4.51711
344 1 -0.0153382 10.6458 -2.35211 -4.58089
345 1 -0.0261237 13.2084 0.461409 -4.58713
346 1 2.36164 10.6645 0.551918 -4.57109
347 1 2.81324 13.2953 -2.71343 -4.41997
348 1 1.35226 12.1341 -1.0933 -4.52099
349 1 1.23407 14.4301 2.1403 -4.58084
350 1 3.86823 11.7979 1.97286 -4.59746
351 1 3.65949 14.3924 -0.866567 -4.42056
352 1 5.18102 10.5329 -2.27697 -4.50384
353 1 5.1604 13.2045 0.649969 -4.49712
354 1 7.80263 10.5245 0.479515 -4.60652
355 1 7.60913 13.1642 56.8275 -4.396
356 1 6.50981 11.9278 -0.899771 -4.54767
357 1 6.37913 14.5973 2.18486 -4.55649
358 1 9.18155 11.8312 1.87723 -4.37579
359 1 9.03469 14.6761 -1.27048 -4.76691
360 1 10.1664 10.1692 56.794 -4.41456
361 1 10.21 13.384 0.296637 -4.62035
362 1 12.7166 10.3188 -0.289774 -4.3864
363 1 12.5118 12.5989 56.0392 -4.21481
364 1 11.3899 11.838 -1.36618 -4.79081
365 1 11.2535 14.5077 2.21488 -4.14277
366 1 13.9847 11.0851 2.49492 -4.25514
367 1 13.3599 13.2535 -1.21682 -4.27018
368 1 15.3011 10.1268 56.0812 -4.19747
369 1 14.5779 11.6303 0.105931 -4.60909
370 1 15.8154 9.923 -0.956501 -4.32543
371 1 -13.7354 15.4822 0.853262 -4.2162
372 1 -12.6743 16.1795 2.97394 -4.25173
373 1 -9.69603 15.6101 56.5295 -4.38249
374 1 -8.32076 15.1543 -0.107295 -4.5229
375 1 -8.79923 17.8208 56.361 -4.47642
376 1 -9.46739 17.07 -0.849536 -4.41743
377 1 -6.62495 16.0368 1.33574 -4.78228
378 1 -7.66098 18.5238 -1.05499 -3.61053
379 1 -5.31407 15.8269 56.6147 -4.5442
380 1 -5.87185 17.9027 0.20105 -4.71572
381 1 -3.02955 15.5605 0.257113 -4.56964
382 1 -2.41947 18.0834 56.8275 -4.44246
383 1 -4.12997 17.1197 -1.16431 -4.49813
384 1 -5.36491 18.9826 2.25428 -3.97704
385 1 -1.89115 16.8336 1.97569 -4.51254
386 1 -0.593378 18.9384 -1.20617 -4.3165
387 1 0.178247 15.2851 56.7238 -4.32207
388 1 -0.16544 17.9485 0.937228 -4.31443
389 1 2.24903 15.725 0.54037 -4.36851
390 1 2.58934 18.1921 -1.79079 -4.34502
391 1 0.745504 16.8552 -1.03319 -4.94778
392 1 1.09631 19.4799 2.08755 -4.50528
393 1 3.59628 16.933 2.14408 -4.64341
394 1 2.62789 19.6728 0.173327 -4.26843
395 1 4.93664 15.6656 56.9008 -4.45856
396 1 4.75083 18.5182 0.800632 -4.14756
397 1 8.16151 16.717 -0.372298 -4.43457
398 1 9.30891 18.0831 -2.04995 -4.20522
399 1 6.14536 17.2028 -1.3229 -4.2196
400 1 5.65344 19.2854 2.92853 -3.67205
401 1 8.19336 16.1367 1.90756 -4.48719
402 1 10.0055 15.1259 56.0416 -4.3149
403 1 12.0361 14.752 -0.0558609 -4.20583
404 1 11.0493 16.2783 -1.6908 -4.1762
405 1 1.2845 20.2361 -1.79454 -4.32658
406 1 -12.4203 -16.2902 3.18319 -4.26839
407 1 -7.90523 -18.1338 3.22505 -3.69921
408 1 -8.94892 -16.6337 7.56646 -3.65164
409 1 -6.41001 -19.043 8.75815 -4.14285
410 1 -6.48796 -17.0811 4.85353 -4.58259
411 1 -5.41629 -18.235 6.67767 -4.52926
412 1 -2.5016 -18.2884 3.64834 -4.46599
413 1 -3.44613 -19.0777 5.69207 -3.70861
414 1 -3.76109 -16.7423 7.61516 -4.46905
415 1 -1.57563 -18.9995 7.0712 -4.14474
416 1 -1.36055 -16.4441 4.53078 -4.65532
417 1 1.18701 -20.3482 1.35701 -4.13459
418 1 0.0888254 -18.068 5.63165 -4.33532
419 1 2.53265 -17.6667 2.61967 -4.57926
420 1 1.16366 -19.2602 3.59942 -4.34396
421 1 1.3776 -16.519 6.95039 -4.46828
422 1 4.23418 -19.1 8.08657 -4.42093
423 1 3.75784 -16.9575 4.56765 -4.42538
424 1 5.12448 -17.9301 6.19268 -4.48347
425 1 7.98776 -18.1315 2.77091 -4.39192
426 1 7.06702 -18.3889 4.85712 -3.40707
427 1 6.28054 -16.4606 7.51506 -4.46651
428 1 9.05324 -17.1126 4.76776 -4.40192
429 1 12.739 -15.3136 8.91958 -4.21535
430 1 -17.5251 -9.97658 5.09233 -4.26058
431 1 -15.9727 -11.9629 4.95443 -4.01603
432 1 -13.1479 -14.4349 4.26944 -4.37288
433 1 -11.8626 -13.0104 2.86077 -4.37214
434 1 -15.019 -13.4959 3.03823 -4.35186
435 1 -14.3866 -11.51 6.89902 -4.49477
436 1 -11.796 -14.1885 6.74456 -4.22606
437 1 -11.5753 -11.6452 4.67323 -4.4888
438 1 -10.1122 -15.948 3.08248 -4.15305
439 1 -10.0908 -12.8249 5.89343 -4.63234
440 1 -7.75696 -15.4835 5.96053 -4.69717
441 1 -7.55766 -12.8017 3.34761 -4.58937
442 1 -9.04497 -14.2996 4.37689 -4.50197
443 1 -9.24693 -11.5413 7.77186 -4.50097
444 1 -6.56543 -14.1852 7.59948 -4.55901
445 1 -6.55154 -11.2018 4.92113 -4.55564
446 1 -5.12552 -15.8194 3.25427 -4.55276
447 1 -5.33214 -12.7705 6.26729 -4.61653
448 1 -2.64998 -15.2563 6.16065 -4.5507
449 1 -2.79712 -12.9826 3.16605 -4.57107
450 1 -4.07009 -14.1255 4.70083 -4.55955
451 1 -3.87783 -11.5468 7.64133 -4.54764
452 1 -1.39912 -13.8026 7.45926 -4.58094
453 1 -1.37086 -11.4754 4.48068 -4.54065
454 1 -0.0243837 -15.1493 2.99424 -4.52503
455 1 -0.0432083 -12.5931 5.96385 -4.56264
456 1 2.84286 -15.1813 5.84516 -4.58255
457 1 2.65814 -12.553 3.23293 -4.60334
458 1 1.35228 -13.8765 4.59696 -4.56877
459 1 1.02399 -11.2925 7.62583 -4.53038
460 1 3.85317 -13.8293 7.58918 -4.52945
461 1 3.99338 -11.361 4.76124 -4.56665
462 1 5.08659 -15.4315 3.35147 -4.5497
463 1 5.34448 -12.5983 6.18057 -4.57685
464 1 7.88934 -15.3992 6.12563 -4.42937
465 1 7.66622 -12.6493 3.40564 -4.54709
466 1 6.45898 -14.0912 4.80837 -4.60811
467 1 6.63066 -11.3842 7.63072 -4.5449
468 1 9.1267 -14.0314 7.88778 -4.40227
469 1 8.99864 -11.3384 4.78856 -4.5728
470 1 10.2472 -15.3579 3.54135 -4.54417
471 1 10.0978 -12.5394 6.37339 -4.56134
472 1 13.1282 -14.3629 6.7583 -4.23329
473 1 12.9781 -12.8423 3.23478 -4.41932
474 1 11.6155 -13.8804 4.99616 -4.41028
475 1 11.6056 -11.2524 7.50622 -4.43342
476 1 12.9404 -12.9168 8.64873 -5.01801
477 1 14.3235 -11.6269 4.68299 -4.60446
478 1 15.0907 -13.0892 6.34949 -3.58725
479 1 15.3256 -12.7776 8.66313 -4.45905
480 1 -18.1818 -7.96592 3.84663 -4.60084
481 1 -18.8603 -5.6329 8.74061 -4.33018
482 1 -16.9285 -9.3775 7.34806 -4.62382
483 1 -16.7721 -6.5436 5.12596 -4.623
484 1 -15.6993 -10.0939 3.53371 -4.6053
485 1 -15.3802 -7.79529 6.56039 -4.62037
486 1 -12.8371 -10.0631 5.93793 -4.58947
487 1 -12.6444 -7.60942 3.25899 -4.50495
488 1 -14.1889 -8.58501 4.69871 -4.62713
489 1 -14.2753 -6.25343 8.02749 -4.544
490 1 -11.9705 -9.00576 7.82497 -4.45318
491 1 -11.5719 -6.27054 4.93214 -4.53635
492 1 -10.1268 -10.2958 3.36721 -4.57444
493 1 -10.5499 -7.77156 6.49329 -4.54844
494 1 -7.84178 -9.97134 6.46076 -4.58984
495 1 -7.69432 -7.77512 3.19768 -4.5216
496 1 -9.05627 -8.70647 4.98699 -4.43668
497 1 -9.10222 -6.48648 7.86217 -4.60573
498 1 -6.39696 -8.93046 7.98371 -4.55497
499 1 -6.51553 -6.39068 4.81221 -4.55401
500 1 -5.07853 -10.12 3.43654 -4.52519
501 1 -5.18989 -7.65465 6.33197 -4.50265
502 1 -2.48069 -10.32 6.27406 -4.47618
503 1 -2.76921 -7.40399 3.16074 -4.53676
504 1 -3.758 -8.81301 4.81945 -4.54927
505 1 -3.97409 -6.13628 7.93271 -4.57464
506 1 -1.40955 -8.84013 7.88614 -4.55258
507 1 -1.54482 -6.32611 4.83201 -4.53388
508 1 0.0303526 -10.2149 3.10041 -4.56675
509 1 -0.10465 -7.69014 6.30846 -4.50796
510 1 2.43211 -10.1958 6.19701 -4.57438
511 1 2.43803 -7.4989 3.25192 -4.50507
512 1 1.10312 -8.90554 4.75673 -4.54715
513 1 1.18951 -6.38725 7.83525 -4.56313
514 1 3.69903 -8.92772 7.7099 -4.57535
515 1 3.7165 -6.42214 4.76657 -4.53179
516 1 5.16282 -10.0811 3.20465 -4.59971
517 1 5.12462 -7.67545 6.1993 -4.52864
518 1 7.82498 -9.90551 6.31798 -4.58948
519 1 7.8206 -7.26547 3.40798 -4.57163
520 1 6.4512 -8.71887 4.74055 -4.52355
521 1 6.36597 -6.42677 7.73551 -4.55663
522 1 9.11977 -8.75908 7.89115 -4.53763
523 1 9.13576 -5.98039 4.92063 -4.56454
524 1 10.3771 -9.87485 3.53001 -4.57759
525 1 10.3191 -7.27173 6.5298 -4.57615
526 1 13.1127 -10.061 6.07481 -4.53201
527 1 12.7892 -7.25485 3.63296 -4.41173
528 1 11.5686 -8.66451 5.13718 -4.58215
529 1 11.7065 -6.11901 7.95789 -4.57939
530 1 14.1017 -9.2197 8.08655 -4.48901
531 1 14.5267 -6.63095 5.0853 -4.6997
532 1 15.6422 -10.0668 3.23243 -4.27821
533 1 15.3572 -7.57317 7.11955 -4.20794
534 1 17.5351 -7.08778 3.58341 -4.34302
535 1 16.0546 -8.496 5.0237 -4.1126
536 1 16.8991 -6.48532 8.58079 -4.47411
537 1 18.6894 -5.48749 4.92084 -3.86893
538 1 -18.0036 -5.07705 6.50531 -4.42317
539 1 -17.4385 -2.59414 3.37704 -4.46155
540 1 -18.9688 -3.89021 4.63511 -4.51049
541 1 -19.3498 -1.77113 5.8498 -3.93321
542 1 -16.9938 -3.29747 7.65541 -4.54472
543 1 -17.1057 -0.775736 5.00504 -5.33961
544 1 -15.6491 -5.38315 3.41168 -4.47328
545 1 -15.4749 -2.21885 6.24704 -4.2782
546 1 -13.1842 -5.0757 6.28788 -4.56557
547 1 -13.0299 -2.64409 3.27895 -4.60338
548 1 -14.4267 -3.81123 4.75463 -4.55352
549 1 -14.256 -1.13973 7.89025 -4.55349
550 1 -11.8172 -3.83085 7.74254 -4.59992
551 1 -11.8694 -1.35356 4.82371 -4.51652
552 1 -10.2132 -4.99285 3.31317 -4.53289
553 1 -10.4026 -2.5594 6.34695 -4.58584
554 1 -7.86495 -5.19392 6.29633 -4.53047
555 1 -7.81887 -2.41424 3.29968 -4.49317
556 1 -8.94246 -3.71055 4.91812 -4.52379
557 1 -9.26489 -1.15396 7.8832 -4.47896
558 1 -6.7643 -3.86311 7.93696 -4.59707
559 1 -6.42581 -1.32963 4.91714 -4.57531
560 1 -5.46671 -4.80669 3.34597 -4.49723
561 1 -5.31795 -2.50126 6.67904 -4.53861
562 1 -2.70765 -4.91834 6.37534 -4.57822
563 1 -2.57651 -2.73855 3.44822 -4.53414
564 1 -4.08542 -3.63249 4.96005 -4.50497
565 1 -3.95713 -1.16405 8.03093 -4.56266
566 1 -1.19636 -3.76613 7.82349 -4.55028
567 1 -1.36293 -1.09628 4.70421 -4.52129
568 1 -0.175801 -5.20836 3.31539 -4.56517
569 1 -0.151924 -2.3191 6.31374 -4.58741
570 1 2.40447 -5.06292 6.28079 -4.59137
571 1 2.66008 -2.60382 3.44537 -4.56661
572 1 1.06344 -3.75085 4.84871 -4.58462
573 1 1.33259 -1.07762 7.78233 -4.54913
574 1 3.86417 -3.88524 7.65416 -4.51849
575 1 4.02218 -1.28111 4.90044 -4.56105
576 1 5.07762 -5.06851 3.3877 -4.57903
577 1 5.43184 -2.51136 6.51698 -4.52424
578 1 7.68821 -4.88578 6.38783 -4.55012
579 1 7.8252 -2.26237 3.30832 -4.57785
580 1 6.46434 -3.62893 4.75214 -4.53294
581 1 6.58463 -1.09564 8.12564 -4.54764
582 1 9.16662 -3.67606 8.00032 -4.56822
583 1 9.08833 -1.22007 5.00393 -4.56301
584 1 10.5774 -4.68253 3.38952 -4.44741
585 1 10.437 -2.47353 6.47944 -4.55518
586 1 13.3 -5.07397 6.52053 -4.37677
587 1 13.1335 -2.51894 3.73575 -4.55777
588 1 11.7934 -3.83814 5.1808 -4.54234
589 1 11.7668 -1.16338 8.05276 -4.58903
590 1 14.5131 -3.80395 8.09192 -4.56564
591 1 14.4091 -1.32209 5.35151 -4.55509
592 1 16.0144 -5.17853 3.67521 -4.73596
593 1 15.9411 -2.45348 6.73068 -4.38018
594 1 17.8321 -4.9462 7.03326 -3.45901
595 1 18.4996 -2.40438 3.29771 -4.30905
596 1 17.2564 -3.6382 4.99449 -4.83898
597 1 17.4016 -1.17322 8.14422 -4.47166
598 1 19.4053 -2.02692 9.08068 -4.46726
599 1 19.5387 -0.551431 4.4922 -4.34134
600 1 -19.3678 -0.0303582 4.22462 -4.01848
601 1 -17.673 0.708205 6.84189 -4.47998
602 1 -17.8379 2.93967 4.11392 -4.74678
603 1 -19.3586 1.98818 5.70158 -4.61942
604 1 -18.8987 3.70887 7.28283 -3.62065
605 1 -16.5055 1.93806 8.49004 -4.5396
606 1 -16.6907 4.62804 5.20277 -4.56518
607 1 -15.4852 0.272279 3.6774 -4.33353
608 1 -15.5265 3.03388 6.69786 -4.45955
609 1 -12.8936 0.188588 6.43371 -4.59044
610 1 -12.9649 2.37429 3.43448 -4.57018
611 1 -14.319 1.60492 5.20267 -4.51738
612 1 -13.8837 4.06438 8.02096 -4.56897
613 1 -11.5237 1.23557 8.00733 -4.55306
614 1 -11.666 3.75903 4.74619 -4.60452
615 1 -10.4809 -0.294722 3.32042 -4.55528
616 1 -10.3895 2.52565 6.34132 -4.55309
617 1 -7.75834 -0.0288524 6.37284 -4.55107
618 1 -7.72774 2.36837 3.43544 -4.60518
619 1 -9.21822 1.1586 4.81242 -4.57941
620 1 -8.96335 3.78471 7.76571 -4.484
621 1 -6.30799 1.17485 7.90669 -4.5271
622 1 -6.2986 3.68656 4.66342 -4.52626
623 1 -4.99076 -0.00885174 3.5745 -4.57703
624 1 -5.15059 2.45704 6.33549 -4.53375
625 1 -2.5257 -0.088124 6.45032 -4.51798
626 1 -2.71186 2.58997 3.38519 -4.52135
627 1 -3.68625 1.33626 5.04151 -4.52278
628 1 -3.89811 3.71101 7.84753 -4.59968
629 1 -1.20435 1.27088 7.85119 -4.53094
630 1 -1.25283 3.85382 4.80494 -4.59942
631 1 0.0555631 0.0535737 3.17916 -4.59119
632 1 0.00394611 2.5769 6.35127 -4.52236
633 1 2.59962 0.172625 6.11214 -4.54587
634 1 2.6109 2.7366 3.32861 -4.56305
635 1 1.20264 1.52518 4.7178 -4.54902
636 1 1.3489 3.94978 7.72456 -4.58595
637 1 3.79263 1.35728 7.6648 -4.52391
638 1 3.90674 4.05237 4.85928 -4.59447
639 1 5.20143 0.0732546 3.46939 -4.5665
640 1 5.19015 2.75361 6.38993 -4.61677
641 1 7.71467 0.0332001 6.47769 -4.52547
642 1 7.827 2.79946 3.64413 -4.53781
643 1 6.50194 1.3344 4.96437 -4.60334
644 1 6.5504 4.15969 7.85832 -4.54668
645 1 9.11378 1.50753 7.95614 -4.54343
646 1 9.40434 4.10319 4.94826 -4.54302
647 1 10.4066 0.0456513 3.56407 -4.59821
648 1 10.5595 2.70981 6.47775 -4.5898
649 1 13.0179 0.116387 6.61505 -4.59152
650 1 12.9906 2.81041 3.49063 -4.59267
651 1 11.8024 1.32261 4.90494 -4.53198
652 1 11.7912 4.24374 7.88756 -4.57133
653 1 14.3469 1.39056 8.04182 -4.57703
654 1 14.4092 4.02572 4.94777 -4.53533
655 1 15.3763 0.0279933 3.62355 -4.5626
656 1 15.5577 2.80231 6.56668 -4.56982
657 1 18.0252 0.0418926 6.17378 -4.66537
658 1 17.8936 2.47175 3.13474 -4.55992
659 1 16.708 1.51049 4.94402 -4.60193
660 1 17 4.15698 7.77906 -4.54047
661 1 19.3927 1.67771 7.06974 -4.5826
662 1 19.528 3.76512 4.19022 -4.53543
663 1 20.4954 1.71376 4.98237 -4.1158
664 1 -18.862 6.01638 7.52395 -4.47888
665 1 -17.686 7.99335 3.90054 -3.58978
666 1 -18.6065 5.99391 4.91869 -4.47195
667 1 -16.644 6.61542 7.89886 -4.71021
668 1 -16.79 9.68717 5.24135 -4.52976
669 1 -15.3332 5.43358 3.49104 -4.60999
670 1 -15.5061 8.00065 6.32871 -4.57045
671 1 -12.8431 5.20296 6.27156 -4.51924
672 1 -12.8834 8.07538 3.40782 -4.55889
673 1 -14.0548 6.73469 4.98755 -4.59863
674 1 -14.1337 8.89066 8.01173 -4.64473
675 1 -11.3645 6.33996 7.81353 -4.5732
676 1 -11.2568 8.99503 4.92797 -4.52907
677 1 -10.3766 5.14619 3.37369 -4.57857
678 1 -9.87056 7.66671 6.36962 -4.57821
679 1 -7.54208 4.8256 6.23509 -4.55488
680 1 -7.70258 7.51675 3.16961 -4.52875
681 1 -8.80273 6.14604 4.81982 -4.56171
682 1 -8.72041 9.04585 7.94146 -4.53735
683 1 -6.41566 6.35504 7.67751 -4.52369
684 1 -6.4781 8.89806 4.58859 -4.54913
685 1 -5.08565 5.23908 3.26672 -4.53107
686 1 -5.26445 7.7358 6.22542 -4.56558
687 1 -2.78751 5.06403 6.29843 -4.52411
688 1 -2.43332 7.89969 3.39076 -4.52743
689 1 -3.75666 6.5036 4.81599 -4.56302
690 1 -4.0937 9.0564 7.74623 -4.5124
691 1 -1.48587 6.35925 7.87976 -4.59783
692 1 -1.37929 9.28027 4.9447 -4.54852
693 1 0.164786 5.27907 3.51249 -4.53751
694 1 -0.199697 7.93535 6.51142 -4.57679
695 1 2.71697 5.31341 6.39041 -4.60971
696 1 2.70302 7.91037 3.44458 -4.55592
697 1 1.41743 6.77945 5.07242 -4.54151
698 1 1.24666 9.15095 7.95676 -4.56485
699 1 4.08467 6.55443 7.90774 -4.54941
700 1 3.90021 9.23449 4.81969 -4.56158
701 1 5.28109 5.37622 3.44815 -4.60418
702 1 5.21531 7.96231 6.31462 -4.5724
703 1 7.96264 5.408 6.43616 -4.57796
704 1 7.94404 8.06431 3.52859 -4.49364
705 1 6.67474 6.76133 4.87229 -4.57558
706 1 6.48467 9.31758 7.70929 -4.54223
707 1 9.08165 6.91673 7.88549 -4.59844
708 1 9.05235 9.45524 4.98286 -4.51803
709 1 10.5451 5.41422 3.46183 -4.54987
710 1 10.4791 8.19297 6.40429 -4.36047
711 1 13.2862 5.46928 6.49815 -4.54776
712 1 12.868 7.80056 3.23563 -4.37755
713 1 11.7658 6.6587 5.02831 -4.52575
714 1 12.083 9.41994 8.03003 -4.85131
715 1 14.5691 6.63987 8.16222 -4.39044
716 1 14.3662 8.6333 4.89646 -4.42882
717 1 15.6364 5.23796 3.35596 -4.32993
718 1 15.492 8.57057 7.08992 -4.66797
719 1 18.2818 4.75542 5.94894 -4.47169
720 1 18.3412 7.48001 3.64955 -4.46576
721 1 16.7931 6.35897 5.02542 -4.43063
722 1 17.2523 9.87371 8.30393 -4.21398
723 1 18.8643 7.03757 6.02824 -4.258
724 1 -16.0703 11.5236 6.70353 -4.13773
725 1 -15.524 10.7536 3.44528 -4.47432
726 1 -15.2363 13.3814 5.36723 -4.25043
727 1 -12.6028 10.0687 6.57067 -4.47545
728 1 -12.387 12.5127 4.11597 -3.942
729 1 -14.1121 11.3684 5.2359 -5.00627
730 1 -13.3842 14.202 6.65974 -4.04062
731 1 -11.1616 11.5083 7.78201 -4.58598
732 1 -11.343 14.3301 5.17273 -5.40611
733 1 -10.0414 10.1179 3.23193 -4.5768
734 1 -10.0075 12.7643 6.28233 -4.31717
735 1 -7.5149 10.2892 6.25762 -4.50832
736 1 -7.66938 12.8606 3.03541 -4.58524
737 1 -8.84832 11.5461 4.62128 -4.55958
738 1 -8.58774 14.2034 7.42657 -4.60604
739 1 -6.25786 11.7427 7.67646 -4.48495
740 1 -6.37476 14.4268 4.35154 -4.64423
741 1 -5.15599 10.2471 3.21098 -4.53113
742 1 -5.19556 13.1661 6.08434 -4.49527
743 1 -2.90117 10.5461 6.25765 -4.52304