LAMMPS (7 Feb 2024 - Update 1)
OMP_NUM_THREADS environment is not set. Defaulting to 1 thread. (src/comm.cpp:98)
  using 1 OpenMP thread(s) per MPI task
Lattice spacing in x,y,z = 5.431 5.431 5.431
Created orthogonal box = (-81.465 -81.465 0) to (81.465 81.465 65.172)
  1 by 1 by 1 MPI processor grid
Created 2700 atoms
  using lattice units in orthogonal box = (-81.481293 -81.481293 0) to (81.481293 81.481293 65.172)
  create_atoms CPU = 0.001 seconds
Reading tersoff potential file Si.tersoff with DATE: 2007-10-25
Neighbor list info ...
  update: every = 1 steps, delay = 0 steps, check = yes
  max neighbors/atom: 2000, page size: 100000
  master list distance cutoff = 5.2
  ghost atom cutoff = 5.2
  binsize = 2.6, bins = 63 63 26
  1 neighbor lists, perpetual/occasional/extra = 1 0 0
  (1) pair tersoff, perpetual
      attributes: full, newton on
      pair build: full/bin/atomonly
      stencil: full/bin/3d
      bin: standard
Setting up cg style minimization ...
  Unit style    : metal
  Current step  : 0
Per MPI rank memory allocation (min/avg/max) = 4.243 | 4.243 | 4.243 Mbytes
   Step          Temp          E_pair         E_mol          TotEng         Press          Volume    
         0   0             -11781.033      0             -11781.033     -5277.7537      69341.193    
        27   0             -11785.307      0             -11785.307     -112.75437      69341.193    
Loop time of 0.277353 on 1 procs for 27 steps with 2700 atoms

100.0% CPU use with 1 MPI tasks x 1 OpenMP threads

Minimization stats:
  Stopping criterion = energy tolerance
  Energy initial, next-to-last, final = 
     -11781.0325785608   -11785.306449307  -11785.3065320948
  Force two-norm initial, final = 10.038548 0.032353979
  Force max component initial, final = 0.4601903 0.00097490016
  Final line search alpha, max atom move = 1 0.00097490016
  Iterations, force evaluations = 27 54

MPI task timing breakdown:
Section |  min time  |  avg time  |  max time  |%varavg| %total
---------------------------------------------------------------
Pair    | 0.27489    | 0.27489    | 0.27489    |   0.0 | 99.11
Neigh   | 0          | 0          | 0          |   0.0 |  0.00
Comm    | 0.00015014 | 0.00015014 | 0.00015014 |   0.0 |  0.05
Output  | 0          | 0          | 0          |   0.0 |  0.00
Modify  | 0          | 0          | 0          |   0.0 |  0.00
Other   |            | 0.002317   |            |       |  0.84

Nlocal:           2700 ave        2700 max        2700 min
Histogram: 1 0 0 0 0 0 0 0 0 0
Nghost:            389 ave         389 max         389 min
Histogram: 1 0 0 0 0 0 0 0 0 0
Neighs:              0 ave           0 max           0 min
Histogram: 1 0 0 0 0 0 0 0 0 0
FullNghs:        66384 ave       66384 max       66384 min
Histogram: 1 0 0 0 0 0 0 0 0 0

Total # of neighbors = 66384
Ave neighs/atom = 24.586667
Neighbor list builds = 0
Dangerous builds = 0
Setting up Verlet run ...
  Unit style    : metal
  Current step  : 0
  Time step     : 0.001
Per MPI rank memory allocation (min/avg/max) = 3.118 | 3.118 | 3.118 Mbytes
   Step          Temp          PotEng         Press           Pzz             Lz      
         0   300           -11785.307      1518.6318      1247.9669      65.172       
      1000   325.29217     -11892.595      317.11599     -2032.1341      65.172       
      2000   306.67666     -11954.41      -2509.0176     -4734.4001      65.172       
      3000   293.66395     -11995.95      -1252.1142     -4556.5963      65.172       
      4000   302.72715     -12005.813     -1745.9612     -5408.6769      65.172       
      5000   293.5015      -12021.216     -1302.8815     -4733.4724      65.172       
      6000   302.82086     -12026.838     -1914.6889     -5783.2391      65.172       
      7000   300.33604     -12031.286     -1198.0896     -4695.0037      65.172       
      8000   296.20304     -12033.341     -1776.0625     -5026.1747      65.172       
      9000   302.47624     -12035.824     -1720.9119     -4836.5079      65.172       
     10000   290.6949      -12038.394     -1939.0674     -5447.1049      65.172       
     11000   305.85767     -12041.323     -2327.0522     -5768.0307      65.172       
     12000   294.93866     -12042.97      -1294.0369     -5501.45        65.172       
     13000   298.05947     -12041.371     -1896.6941     -5881.4868      65.172       
     14000   299.29428     -12048.278     -2460.8258     -6005.261       65.172       
     15000   288.7035      -12041.157     -542.89546     -3777.9744      65.172       
     16000   295.48496     -12045.448     -3394.6564     -7293.1365      65.172       
     17000   301.79728     -12048.723     -936.60717     -4374.9125      65.172       
     18000   301.64928     -12043.813     -1966.2834     -5343.5289      65.172       
     19000   301.71697     -12047.916     -2047.3918     -5825.7352      65.172       
     20000   302.59375     -12047.187     -2134.2917     -6494.0566      65.172       
     21000   295.2626      -12050.254     -1717.016      -4922.916       65.172       
     22000   298.18815     -12049.877     -2705.5222     -6444.1278      65.172       
     23000   305.90466     -12046.451     -2529.4994     -6116.5326      65.172       
     24000   292.18818     -12047.205     -1292.376      -5246.8859      65.172       
     25000   303.94664     -12047.851     -1934.9468     -4846.8226      65.172       
     26000   296.55811     -12048.254     -1097.2949     -4773.2271      65.172       
     27000   306.04991     -12049.012     -1583.6322     -4967.5685      65.172       
     28000   298.28959     -12049.892     -1417.1588     -5387.006       65.172       
     29000   297.97366     -12049.592     -2648.3961     -6845.8543      65.172       
     30000   289.92873     -12053.979     -2047.5598     -6541.8456      65.172       
Loop time of 173.504 on 1 procs for 30000 steps with 2700 atoms

Performance: 14.939 ns/day, 1.607 hours/ns, 172.907 timesteps/s, 466.849 katom-step/s
100.0% CPU use with 1 MPI tasks x 1 OpenMP threads

MPI task timing breakdown:
Section |  min time  |  avg time  |  max time  |%varavg| %total
---------------------------------------------------------------
Pair    | 171.41     | 171.41     | 171.41     |   0.0 | 98.80
Neigh   | 0.63812    | 0.63812    | 0.63812    |   0.0 |  0.37
Comm    | 0.075473   | 0.075473   | 0.075473   |   0.0 |  0.04
Output  | 0.0012779  | 0.0012779  | 0.0012779  |   0.0 |  0.00
Modify  | 1.1643     | 1.1643     | 1.1643     |   0.0 |  0.67
Other   |            | 0.2111     |            |       |  0.12

Nlocal:           2700 ave        2700 max        2700 min
Histogram: 1 0 0 0 0 0 0 0 0 0
Nghost:            412 ave         412 max         412 min
Histogram: 1 0 0 0 0 0 0 0 0 0
Neighs:              0 ave           0 max           0 min
Histogram: 1 0 0 0 0 0 0 0 0 0
FullNghs:        69172 ave       69172 max       69172 min
Histogram: 1 0 0 0 0 0 0 0 0 0

Total # of neighbors = 69172
Ave neighs/atom = 25.619259
Neighbor list builds = 206
Dangerous builds = 0
Setting up Verlet run ...
  Unit style    : metal
  Current step  : 0
  Time step     : 0.001
Per MPI rank memory allocation (min/avg/max) = 3.118 | 3.118 | 3.118 Mbytes
   Step          Temp         v_strain     v_stress_GPa      PotEng           Lz           Press     
         0   289.92873      0              0.6554251     -12053.979      65.172        -2051.4426    
      5000   307.34219      0.005          0.68228847    -12051.338      65.49786      -2192.0554    
     10000   301.87073      0.01           0.96059102    -12049.579      65.82372      -3931.9864    
     15000   303.72391      0.015          1.1035408     -12049.753      66.14958      -4033.3989    
     20000   302.55125      0.02           1.1855332     -12047.039      66.47544      -4199.2666    
     25000   305.10674      0.025          1.4662256     -12044.839      66.8013       -5774.1245    
     30000   306.47308      0.03           1.4982297     -12044.746      67.12716      -4919.8613    
     35000   306.45767      0.035          1.6427926     -12041.013      67.45302      -5333.9371    
     40000   306.6365       0.04           1.9227582     -12037.53       67.77888      -7013.5145    
     45000   305.72647      0.045          1.8768342     -12032.549      68.10474      -6172.3574    
     50000   292.41314      0.05           2.1835316     -12033.209      68.4306       -7205.8461    
     55000   294.3161       0.055          2.2256691     -12026.394      68.75646      -6893.4546    
     60000   300.51091      0.06           2.6691935     -12025.876      69.08232      -9661.4651    
     65000   303.54282      0.065          2.6821877     -12018.106      69.40818      -8780.3896    
     70000   302.14652      0.07           2.8161062     -12019.939      69.73404      -8887.6065    
     75000   293.97742      0.075          2.824004      -12013.213      70.0599       -8089.726     
     80000   299.0566       0.08           3.2116409     -12011.936      70.38576      -11067.994    
     85000   300.49335      0.085          3.2464995     -12005.593      70.71162      -10399.123    
     90000   298.51756      0.09           3.3398666     -11999.488      71.03748      -10448.499    
     95000   304.9623       0.095          3.6789774     -11996.459      71.36334      -13269.681    
    100000   303.77868      0.1            3.7502259     -11988.775      71.6892       -12838.199    
    105000   290.03162      0.105          3.6701814     -11987.948      72.01506      -11483.739    
    110000   293.47568      0.11           3.8770098     -11981.757      72.34092      -13345.949    
    115000   306.69636      0.115          3.9186737     -11979.424      72.66678      -13943.164    
    120000   300.53934      0.12           4.0237921     -11973.404      72.99264      -13349.247    
    125000   304.75504      0.125          4.2328038     -11966.948      73.3185       -13667.427    
    130000   304.03018      0.13           4.4544301     -11963.263      73.64436      -15320.369    
    135000   300.24118      0.135          4.5526215     -11958.007      73.97022      -15250.785    
    140000   302.58517      0.14           4.7883489     -11948.58       74.29608      -16267.174    
    145000   309.21895      0.145          4.6893606     -11942.665      74.62194      -14855.493    
    150000   296.32684      0.15           5.1437684     -11938.929      74.9478       -17503.109    
    155000   303.44121      0.155          5.2977032     -11928.805      75.27366      -18710.753    
    160000   302.37244      0.16           5.3526684     -11924.608      75.59952      -18275.14     
    165000   304.84821      0.165          5.515194      -11916.239      75.92538      -17870.371    
    170000   299.68749      0.17           5.5141743     -11911.471      76.25124      -18820.093    
    175000   296.88926      0.175          5.7966464     -11901.386      76.5771       -20113.261    
    180000   295.85087      0.18           5.7761316     -11894.584      76.90296      -19011.446    
    185000   298.51462      0.185          5.5499655     -11888.288      77.22882      -17818.823    
    190000   302.5784       0.19           5.9164914     -11877.112      77.55468      -19403.728    
    195000   298.83152      0.195          6.2925861     -11871.764      77.88054      -21814.925    
    200000   304.95549      0.2            6.0271266     -11868.971      78.2064       -19116.217    
Loop time of 1266.3 on 1 procs for 200000 steps with 2700 atoms

Performance: 13.646 ns/day, 1.759 hours/ns, 157.941 timesteps/s, 426.440 katom-step/s
100.0% CPU use with 1 MPI tasks x 1 OpenMP threads

MPI task timing breakdown:
Section |  min time  |  avg time  |  max time  |%varavg| %total
---------------------------------------------------------------
Pair    | 1242.1     | 1242.1     | 1242.1     |   0.0 | 98.09
Neigh   | 3.8566     | 3.8566     | 3.8566     |   0.0 |  0.30
Comm    | 0.51566    | 0.51566    | 0.51566    |   0.0 |  0.04
Output  | 0.0011918  | 0.0011918  | 0.0011918  |   0.0 |  0.00
Modify  | 18.299     | 18.299     | 18.299     |   0.0 |  1.45
Other   |            | 1.533      |            |       |  0.12

Nlocal:           2700 ave        2700 max        2700 min
Histogram: 1 0 0 0 0 0 0 0 0 0
Nghost:            367 ave         367 max         367 min
Histogram: 1 0 0 0 0 0 0 0 0 0
Neighs:              0 ave           0 max           0 min
Histogram: 1 0 0 0 0 0 0 0 0 0
FullNghs:        68814 ave       68814 max       68814 min
Histogram: 1 0 0 0 0 0 0 0 0 0

Total # of neighbors = 68814
Ave neighs/atom = 25.486667
Neighbor list builds = 1143
Dangerous builds = 0
DONE RAD=3 RATE=0.001 atoms=2700 finalstrain=0.2000000000000000111
Total wall time: 0:24:00
