LAMMPS (7 Feb 2024 - Update 1)
OMP_NUM_THREADS environment is not set. Defaulting to 1 thread. (src/comm.cpp:98)
  using 1 OpenMP thread(s) per MPI task
Lattice spacing in x,y,z = 5.431 5.431 5.431
Created orthogonal box = (-81.465 -81.465 0) to (81.465 81.465 65.172)
  1 by 1 by 1 MPI processor grid
Created 7596 atoms
  using lattice units in orthogonal box = (-81.481293 -81.481293 0) to (81.481293 81.481293 65.172)
  create_atoms CPU = 0.002 seconds
Reading tersoff potential file Si.tersoff with DATE: 2007-10-25
Neighbor list info ...
  update: every = 1 steps, delay = 0 steps, check = yes
  max neighbors/atom: 2000, page size: 100000
  master list distance cutoff = 5.2
  ghost atom cutoff = 5.2
  binsize = 2.6, bins = 63 63 26
  1 neighbor lists, perpetual/occasional/extra = 1 0 0
  (1) pair tersoff, perpetual
      attributes: full, newton on
      pair build: full/bin/atomonly
      stencil: full/bin/3d
      bin: standard
Setting up cg style minimization ...
  Unit style    : metal
  Current step  : 0
Per MPI rank memory allocation (min/avg/max) = 5.146 | 5.146 | 5.146 Mbytes
   Step          Temp          E_pair         E_mol          TotEng         Press          Volume    
         0   0             -33928.969      0             -33928.969     -3087.6223      192460.52    
        30   0             -33935.745      0             -33935.745     -100.89585      192460.52    
Loop time of 0.909243 on 1 procs for 30 steps with 7596 atoms

96.5% CPU use with 1 MPI tasks x 1 OpenMP threads

Minimization stats:
  Stopping criterion = energy tolerance
  Energy initial, next-to-last, final = 
     -33928.9686753943  -33935.7442903053  -33935.7446203512
  Force two-norm initial, final = 12.697613 0.07047148
  Force max component initial, final = 0.4601903 0.0025199295
  Final line search alpha, max atom move = 1 0.0025199295
  Iterations, force evaluations = 30 60

MPI task timing breakdown:
Section |  min time  |  avg time  |  max time  |%varavg| %total
---------------------------------------------------------------
Pair    | 0.90059    | 0.90059    | 0.90059    |   0.0 | 99.05
Neigh   | 0          | 0          | 0          |   0.0 |  0.00
Comm    | 0.00048067 | 0.00048067 | 0.00048067 |   0.0 |  0.05
Output  | 0          | 0          | 0          |   0.0 |  0.00
Modify  | 0          | 0          | 0          |   0.0 |  0.00
Other   |            | 0.008176   |            |       |  0.90

Nlocal:           7596 ave        7596 max        7596 min
Histogram: 1 0 0 0 0 0 0 0 0 0
Nghost:           1105 ave        1105 max        1105 min
Histogram: 1 0 0 0 0 0 0 0 0 0
Neighs:              0 ave           0 max           0 min
Histogram: 1 0 0 0 0 0 0 0 0 0
FullNghs:       197136 ave      197136 max      197136 min
Histogram: 1 0 0 0 0 0 0 0 0 0

Total # of neighbors = 197136
Ave neighs/atom = 25.952607
Neighbor list builds = 0
Dangerous builds = 0
Setting up Verlet run ...
  Unit style    : metal
  Current step  : 0
  Time step     : 0.001
Per MPI rank memory allocation (min/avg/max) = 4.021 | 4.021 | 4.021 Mbytes
   Step          Temp          PotEng         Press           Pzz             Lz      
         0   300           -33935.745      1546.3876      1431.0096      65.172       
      1000   315.16527     -34040.157     -1591.2573     -2947.8358      65.172       
      2000   301.62997     -34165.807     -1024.13       -2804.1352      65.172       
      3000   302.65244     -34224.58      -846.66834     -3098.1147      65.172       
      4000   297.45282     -34239.033     -663.24298     -2815.6048      65.172       
      5000   302.17345     -34249.128     -546.86108     -2927.3986      65.172       
      6000   299.04305     -34253.45      -34.341641     -2256.6734      65.172       
      7000   299.43648     -34258.082     -390.20301     -2574.2583      65.172       
      8000   301.02043     -34261.542     -882.16473     -3150.5009      65.172       
      9000   304.18359     -34260.184     -1060.8464     -3459.0653      65.172       
     10000   303.49841     -34268.268     -1690.4078     -4060.4802      65.172       
     11000   302.0764      -34262.069     -1477.5473     -3790.4006      65.172       
     12000   294.40821     -34264.139     -1957.506      -4105.6103      65.172       
     13000   303.9089      -34268.489     -1482.3476     -3983.8779      65.172       
     14000   300.48939     -34271.381     -1942.1917     -4775.035       65.172       
     15000   307.32814     -34269.031     -1481.096      -4113.0042      65.172       
     16000   298.4768      -34270.009     -1319.1776     -3714.1612      65.172       
     17000   298.83549     -34270.287     -1230.1236     -3695.5808      65.172       
     18000   295.33814     -34274.068     -1301.4936     -3958.3899      65.172       
     19000   297.92583     -34268.455     -938.16312     -3694.9536      65.172       
     20000   293.44634     -34274.753     -1211.1006     -3593.2069      65.172       
     21000   298.92285     -34272.845     -858.21022     -3402.6621      65.172       
     22000   296.36377     -34267.052     -1710.5472     -4109.9326      65.172       
     23000   304.6623      -34275.521     -1218.4255     -3844.0388      65.172       
     24000   298.29511     -34275.372     -1073.7879     -3587.7354      65.172       
     25000   303.50482     -34278.025     -1229.4284     -3928.1512      65.172       
     26000   299.15781     -34280.397     -977.52372     -3371.0998      65.172       
     27000   300.15143     -34277.308     -1203.9889     -3533.4479      65.172       
     28000   294.89523     -34280.028     -1384.5648     -3877.1576      65.172       
     29000   304.72275     -34280.633     -650.07525     -3378.6156      65.172       
     30000   303.22206     -34278.808     -1065.6715     -3497.0992      65.172       
Loop time of 493.623 on 1 procs for 30000 steps with 7596 atoms

Performance: 5.251 ns/day, 4.571 hours/ns, 60.775 timesteps/s, 461.648 katom-step/s
96.5% CPU use with 1 MPI tasks x 1 OpenMP threads

MPI task timing breakdown:
Section |  min time  |  avg time  |  max time  |%varavg| %total
---------------------------------------------------------------
Pair    | 486.88     | 486.88     | 486.88     |   0.0 | 98.63
Neigh   | 1.9305     | 1.9305     | 1.9305     |   0.0 |  0.39
Comm    | 0.26063    | 0.26063    | 0.26063    |   0.0 |  0.05
Output  | 0.0023521  | 0.0023521  | 0.0023521  |   0.0 |  0.00
Modify  | 3.7042     | 3.7042     | 3.7042     |   0.0 |  0.75
Other   |            | 0.8462     |            |       |  0.17

Nlocal:           7596 ave        7596 max        7596 min
Histogram: 1 0 0 0 0 0 0 0 0 0
Nghost:           1149 ave        1149 max        1149 min
Histogram: 1 0 0 0 0 0 0 0 0 0
Neighs:              0 ave           0 max           0 min
Histogram: 1 0 0 0 0 0 0 0 0 0
FullNghs:       203176 ave      203176 max      203176 min
Histogram: 1 0 0 0 0 0 0 0 0 0

Total # of neighbors = 203176
Ave neighs/atom = 26.747762
Neighbor list builds = 217
Dangerous builds = 0
Setting up Verlet run ...
  Unit style    : metal
  Current step  : 0
  Time step     : 0.001
Per MPI rank memory allocation (min/avg/max) = 4.028 | 4.028 | 4.028 Mbytes
   Step          Temp         v_strain     v_stress_GPa      PotEng           Lz           Press     
         0   303.22206      0              0.34798145    -34278.808      65.172        -1060.4043    
      5000   306.08044      0.005          0.624911      -34271.545      65.49786      -2298.1137    
     10000   302.36306      0.01           0.76711996    -34274.146      65.82372      -2503.2054    
     15000   296.8071       0.015          0.93953005    -34272.465      66.14958      -3169.2486    
     20000   298.80581      0.02           1.040516      -34266.351      66.47544      -3280.7242    
     25000   301.66982      0.025          1.2751304     -34260.962      66.8013       -4386.495     
     30000   301.52376      0.03           1.4773669     -34259.404      67.12716      -4983.822     
     35000   300.82918      0.035          1.6305306     -34249.022      67.45302      -5708.8604    
     40000   304.43156      0.04           1.7690075     -34237.906      67.77888      -5710.6305    
     45000   302.58754      0.045          2.0009718     -34229.212      68.10474      -6604.7679    
     50000   296.45176      0.05           2.1952768     -34220.341      68.4306       -7726.5978    
     55000   298.72086      0.055          2.3781094     -34208.195      68.75646      -7866.2432    
     60000   297.53313      0.06           2.5035412     -34199.998      69.08232      -8524.7333    
     65000   300.40882      0.065          2.791676      -34189.533      69.40818      -9647.1232    
     70000   303.83283      0.07           2.9468115     -34170.472      69.73404      -9911.2103    
     75000   298.64146      0.075          3.1027724     -34154.439      70.0599       -9947.4114    
     80000   305.58517      0.08           3.3013657     -34138.036      70.38576      -10964.255    
     85000   300.05889      0.085          3.4909033     -34120.314      70.71162      -11690.08     
     90000   299.3516       0.09           3.6978923     -34102.364      71.03748      -12049.047    
     95000   298.82452      0.095          3.8852882     -34083.167      71.36334      -13389.195    
    100000   298.35633      0.1            3.998194      -34062.403      71.6892       -12868.422    
    105000   297.81285      0.105          4.3496348     -34043.002      72.01506      -14964.2      
    110000   301.01619      0.11           4.4553344     -34014.887      72.34092      -15022.046    
    115000   297.45765      0.115          4.5566        -33993.221      72.66678      -15022.307    
    120000   299.2045       0.12           4.8019046     -33972.629      72.99264      -16045.108    
    125000   300.71434      0.125          4.9399519     -33947.066      73.3185       -16490.098    
    130000   298.75879      0.13           5.2450046     -33921.93       73.64436      -17482.689    
    135000   302.22739      0.135          5.3956925     -33901.845      73.97022      -18153.858    
    140000   295.30336      0.14           5.5220367     -33874.396      74.29608      -18228.018    
    145000   299.74254      0.145          5.7135601     -33854.267      74.62194      -18924.001    
    150000   307.42514      0.15           5.9145047     -33821.519      74.9478       -20108.272    
    155000   299.44106      0.155          6.0725115     -33797.525      75.27366      -20356.76     
    160000   295.1499       0.16           6.2178203     -33781.118      75.59952      -20765.523    
    165000   298.37147      0.165          6.4422797     -33742.722      75.92538      -21973.326    
    170000   301.62401      0.17           6.4897123     -33716.732      76.25124      -21067.526    
    175000   299.89328      0.175          6.8059362     -33683.987      76.5771       -22591.331    
    180000   297.3869       0.18           6.8479071     -33655.528      76.90296      -22830.731    
    185000   300.71312      0.185          7.1560857     -33623.475      77.22882      -23883.306    
    190000   297.02453      0.19           7.2623135     -33592.416      77.55468      -24367.41     
    195000   294.77088      0.195          7.313046      -33558.519      77.88054      -24481.873    
    200000   303.99309      0.2            7.4469613     -33526.628      78.2064       -24906.691    
Loop time of 3473.82 on 1 procs for 200000 steps with 7596 atoms

Performance: 4.974 ns/day, 4.825 hours/ns, 57.573 timesteps/s, 437.328 katom-step/s
96.4% CPU use with 1 MPI tasks x 1 OpenMP threads

MPI task timing breakdown:
Section |  min time  |  avg time  |  max time  |%varavg| %total
---------------------------------------------------------------
Pair    | 3403.5     | 3403.5     | 3403.5     |   0.0 | 97.98
Neigh   | 12.144     | 12.144     | 12.144     |   0.0 |  0.35
Comm    | 1.4482     | 1.4482     | 1.4482     |   0.0 |  0.04
Output  | 0.0019621  | 0.0019621  | 0.0019621  |   0.0 |  0.00
Modify  | 51.092     | 51.092     | 51.092     |   0.0 |  1.47
Other   |            | 5.638      |            |       |  0.16

Nlocal:           7596 ave        7596 max        7596 min
Histogram: 1 0 0 0 0 0 0 0 0 0
Nghost:           1070 ave        1070 max        1070 min
Histogram: 1 0 0 0 0 0 0 0 0 0
Neighs:              0 ave           0 max           0 min
Histogram: 1 0 0 0 0 0 0 0 0 0
FullNghs:       205692 ave      205692 max      205692 min
Histogram: 1 0 0 0 0 0 0 0 0 0

Total # of neighbors = 205692
Ave neighs/atom = 27.078989
Neighbor list builds = 1274
Dangerous builds = 0
DONE RAD=5 RATE=0.001 atoms=7596 finalstrain=0.2000000000000000111
Total wall time: 1:06:08
