LAMMPS (7 Feb 2024 - Update 1)
OMP_NUM_THREADS environment is not set. Defaulting to 1 thread. (src/comm.cpp:98)
  using 1 OpenMP thread(s) per MPI task
Lattice spacing in x,y,z = 5.431 5.431 5.431
Created orthogonal box = (-81.465 -81.465 0) to (81.465 81.465 65.172)
  1 by 1 by 1 MPI processor grid
Created 14748 atoms
  using lattice units in orthogonal box = (-81.481293 -81.481293 0) to (81.481293 81.481293 65.172)
  create_atoms CPU = 0.005 seconds
Reading tersoff potential file Si.tersoff with DATE: 2007-10-25
Neighbor list info ...
  update: every = 1 steps, delay = 0 steps, check = yes
  max neighbors/atom: 2000, page size: 100000
  master list distance cutoff = 5.2
  ghost atom cutoff = 5.2
  binsize = 2.6, bins = 63 63 26
  1 neighbor lists, perpetual/occasional/extra = 1 0 0
  (1) pair tersoff, perpetual
      attributes: full, newton on
      pair build: full/bin/atomonly
      stencil: full/bin/3d
      bin: standard
Setting up cg style minimization ...
  Unit style    : metal
  Current step  : 0
Per MPI rank memory allocation (min/avg/max) = 9.114 | 9.114 | 9.114 Mbytes
   Step          Temp          E_pair         E_mol          TotEng         Press          Volume    
         0   0             -66648.639      0             -66648.639     -2229.6919      377093.37    
        26   0             -66658.459      0             -66658.459     -132.44183      377093.37    
Loop time of 1.57658 on 1 procs for 26 steps with 14748 atoms

93.3% CPU use with 1 MPI tasks x 1 OpenMP threads

Minimization stats:
  Stopping criterion = energy tolerance
  Energy initial, next-to-last, final = 
     -66648.6385080089  -66658.4587175514  -66658.4593717473
  Force two-norm initial, final = 14.966484 0.098294504
  Force max component initial, final = 0.4601903 0.0025251828
  Final line search alpha, max atom move = 1 0.0025251828
  Iterations, force evaluations = 26 52

MPI task timing breakdown:
Section |  min time  |  avg time  |  max time  |%varavg| %total
---------------------------------------------------------------
Pair    | 1.5601     | 1.5601     | 1.5601     |   0.0 | 98.95
Neigh   | 0          | 0          | 0          |   0.0 |  0.00
Comm    | 0.00085133 | 0.00085133 | 0.00085133 |   0.0 |  0.05
Output  | 0          | 0          | 0          |   0.0 |  0.00
Modify  | 0          | 0          | 0          |   0.0 |  0.00
Other   |            | 0.01567    |            |       |  0.99

Nlocal:          14748 ave       14748 max       14748 min
Histogram: 1 0 0 0 0 0 0 0 0 0
Nghost:           2153 ave        2153 max        2153 min
Histogram: 1 0 0 0 0 0 0 0 0 0
Neighs:              0 ave           0 max           0 min
Histogram: 1 0 0 0 0 0 0 0 0 0
FullNghs:       391440 ave      391440 max      391440 min
Histogram: 1 0 0 0 0 0 0 0 0 0

Total # of neighbors = 391440
Ave neighs/atom = 26.541904
Neighbor list builds = 0
Dangerous builds = 0
Setting up Verlet run ...
  Unit style    : metal
  Current step  : 0
  Time step     : 0.001
Per MPI rank memory allocation (min/avg/max) = 6.866 | 6.866 | 6.866 Mbytes
   Step          Temp          PotEng         Press           Pzz             Lz      
         0   300           -66658.459      1495.7482      1388.2331      65.172       
      1000   300.50162     -66538.5        714.31626     -458.01126      65.172       
      2000   301.56514     -66736.103     -876.74568     -1770.785       65.172       
      3000   300.46586     -66798.889     -1318.886      -2512.3702      65.172       
      4000   300.53216     -66824.241      544.50194     -1119.9328      65.172       
      5000   298.43752     -66831.425     -1335.6973     -2686.4983      65.172       
      6000   301.7324      -66841.69      -1495.1971     -3036.1054      65.172       
      7000   301.7253      -66836.642      457.24502     -1101.0447      65.172       
      8000   298.13133     -66847.593     -976.62009     -2348.2882      65.172       
      9000   302.04962     -66845.155     -1549.8023     -2972.6615      65.172       
     10000   299.14144     -66850.665      342.45249     -1442.2284      65.172       
     11000   302.51053     -66843.952     -1348.3433     -2859.375       65.172       
     12000   300.59046     -66856.529     -1209.1799     -2803.3216      65.172       
     13000   303.17286     -66855.847      366.82226     -1372.8916      65.172       
     14000   296.7729      -66856.136     -1492.4433     -3011.9716      65.172       
     15000   304.47872     -66858.23      -722.43933     -2177.6732      65.172       
     16000   301.27647     -66860.466      114.74834     -1465.1574      65.172       
     17000   300.63078     -66868.445     -1524.1055     -2954.4527      65.172       
     18000   297.99245     -66860.896     -1036.3886     -2492.5632      65.172       
     19000   296.53901     -66860.938      436.07655     -1218.956       65.172       
     20000   299.99        -66864.66      -1400.4939     -2808.7188      65.172       
     21000   301.3466      -66860.013     -1165.771      -2855.3913      65.172       
     22000   304.41494     -66866.587      235.31286     -1507.1979      65.172       
     23000   298.15505     -66861.092     -1485.3239     -2941.3046      65.172       
     24000   301.03806     -66866.023     -1004.2858     -2568.1931      65.172       
     25000   301.17069     -66870.066      235.42447     -1406.1244      65.172       
     26000   297.64656     -66859.876     -1635.0382     -3040.7405      65.172       
     27000   300.19969     -66863.819     -1053.7589     -2861.8169      65.172       
     28000   297.68958     -66871.305      206.34477     -1406.2318      65.172       
     29000   297.84006     -66864.071     -1758.0168     -3322.0257      65.172       
     30000   299.08455     -66866.768     -706.42272     -2204.2568      65.172       
Loop time of 973.762 on 1 procs for 30000 steps with 14748 atoms

Performance: 2.662 ns/day, 9.016 hours/ns, 30.808 timesteps/s, 454.361 katom-step/s
92.9% CPU use with 1 MPI tasks x 1 OpenMP threads

MPI task timing breakdown:
Section |  min time  |  avg time  |  max time  |%varavg| %total
---------------------------------------------------------------
Pair    | 959.94     | 959.94     | 959.94     |   0.0 | 98.58
Neigh   | 3.9076     | 3.9076     | 3.9076     |   0.0 |  0.40
Comm    | 0.50304    | 0.50304    | 0.50304    |   0.0 |  0.05
Output  | 0.0040095  | 0.0040095  | 0.0040095  |   0.0 |  0.00
Modify  | 7.5863     | 7.5863     | 7.5863     |   0.0 |  0.78
Other   |            | 1.818      |            |       |  0.19

Nlocal:          14748 ave       14748 max       14748 min
Histogram: 1 0 0 0 0 0 0 0 0 0
Nghost:           2198 ave        2198 max        2198 min
Histogram: 1 0 0 0 0 0 0 0 0 0
Neighs:              0 ave           0 max           0 min
Histogram: 1 0 0 0 0 0 0 0 0 0
FullNghs:       400654 ave      400654 max      400654 min
Histogram: 1 0 0 0 0 0 0 0 0 0

Total # of neighbors = 400654
Ave neighs/atom = 27.166667
Neighbor list builds = 237
Dangerous builds = 0
Setting up Verlet run ...
  Unit style    : metal
  Current step  : 0
  Time step     : 0.001
Per MPI rank memory allocation (min/avg/max) = 7.248 | 7.248 | 7.248 Mbytes
   Step          Temp         v_strain     v_stress_GPa      PotEng           Lz           Press     
         0   299.08455      0              0.21999948    -66866.768      65.172        -705.05685    
      5000   301.08023      0.0025         0.40543489    -66863.324      65.33493      -2175.3612    
     10000   297.93271      0.005          0.34453739    -66872.093      65.49786      -641.48166    
     15000   298.63544      0.0075         0.47692004    -66867.549      65.66079      -1478.7057    
     20000   303.19837      0.01           0.67015506    -66865.795      65.82372      -2831.8413    
     25000   301.99404      0.0125         0.69848485    -66860.165      65.98665      -2176.6501    
     30000   299.07487      0.015          0.73890707    -66857.52       66.14958      -2195.7813    
     35000   299.1126       0.0175         0.86138772    -66853.731      66.31251      -2979.5274    
     40000   300.20226      0.02           0.97866252    -66858.25       66.47544      -3448.1131    
     45000   300.88111      0.0225         0.99702298    -66850.995      66.63837      -3193.3204    
     50000   303.65731      0.025          1.1385035     -66841.551      66.8013       -3713.0186    
     55000   301.16465      0.0275         1.2593949     -66835.056      66.96423      -4285.4678    
     60000   300.72681      0.03           1.3183561     -66829.569      67.12716      -4271.7328    
     65000   301.05174      0.0325         1.3919665     -66824.599      67.29009      -4397.0521    
     70000   301.0808       0.035          1.4963939     -66816.96       67.45302      -4877.9465    
     75000   301.25855      0.0375         1.6658601     -66806.143      67.61595      -5885.5883    
     80000   301.52352      0.04           1.6458811     -66795.394      67.77888      -5192.7705    
     85000   301.03582      0.0425         1.8087175     -66793.342      67.94181      -6046.3508    
     90000   299.58426      0.045          1.9244583     -66775.401      68.10474      -6551.7226    
     95000   304.66954      0.0475         1.9800434     -66766.032      68.26767      -6514.48      
    100000   300.14581      0.05           2.087279      -66754.811      68.4306       -6910.0562    
    105000   301.45703      0.0525         2.1799993     -66752.571      68.59353      -7239.719     
    110000   298.39717      0.055          2.2305635     -66741.125      68.75646      -7102.1077    
    115000   297.2757       0.0575         2.3610945     -66729.541      68.91939      -7649.6418    
    120000   300.28921      0.06           2.5546721     -66708.251      69.08232      -8915.0125    
    125000   300.19244      0.0625         2.6085611     -66696.057      69.24525      -8977.2657    
    130000   300.87211      0.065          2.6911836     -66683.129      69.40818      -8981.8913    
    135000   300.1529       0.0675         2.7218841     -66671.164      69.57111      -8859.5549    
    140000   298.96864      0.07           2.8890518     -66660.918      69.73404      -9736.5191    
    145000   296.39869      0.0725         3.0461456     -66642.7        69.89697      -10286.415    
    150000   303.46876      0.075          3.0972666     -66631.27       70.0599       -10284.729    
    155000   298.79429      0.0775         3.194477      -66608.506      70.22283      -10625.875    
    160000   300.99302      0.08           3.3125178     -66593.315      70.38576      -11058.131    
    165000   298.49689      0.0825         3.4214242     -66582.95       70.54869      -11559.213    
    170000   299.03473      0.085          3.5056495     -66568.199      70.71162      -11812.922    
    175000   303.64344      0.0875         3.5594415     -66548.989      70.87455      -11740.246    
    180000   294.53312      0.09           3.6766886     -66531.337      71.03748      -11945.652    
    185000   297.90699      0.0925         3.7758363     -66511.53       71.20041      -12139.559    
    190000   298.59172      0.095          3.9135672     -66488.743      71.36334      -13335.075    
    195000   299.0217       0.0975         4.0473744     -66461.36       71.52627      -13751.778    
    200000   298.38427      0.1            4.1417502     -66452.797      71.6892       -13905.647    
    205000   299.13482      0.1025         4.219728      -66423.691      71.85213      -14080.179    
    210000   297.55449      0.105          4.3417722     -66409.156      72.01506      -14453.939    
    215000   298.36115      0.1075         4.388452      -66384.606      72.17799      -14501.229    
    220000   300.53182      0.11           4.5033003     -66368.063      72.34092      -14817.108    
    225000   302.305        0.1125         4.6347751     -66340.529      72.50385      -15364.871    
    230000   300.32487      0.115          4.7457394     -66318.692      72.66678      -15812.533    
    235000   300.75125      0.1175         4.8517448     -66288.511      72.82971      -16204.086    
    240000   299.97858      0.12           4.971897      -66264.65       72.99264      -16666.115    
    245000   298.81604      0.1225         5.0211272     -66239.654      73.15557      -16541.389    
    250000   301.17835      0.125          5.1519725     -66219.833      73.3185       -16971.057    
    255000   298.53358      0.1275         5.2716866     -66189.755      73.48143      -17671.282    
    260000   297.53041      0.13           5.3623826     -66168.634      73.64436      -17814.484    
    265000   296.95146      0.1325         5.4755015     -66139.83       73.80729      -18278.807    
    270000   304.56561      0.135          5.6037396     -66117.272      73.97022      -18929.528    
    275000   302.36678      0.1375         5.6447069     -66092.367      74.13315      -18855.064    
    280000   297.69125      0.14           5.7603806     -66056.727      74.29608      -19311.666    
    285000   300.01282      0.1425         5.8912825     -66033.373      74.45901      -19453.353    
    290000   297.68091      0.145          5.9829722     -65999.397      74.62194      -19971.02     
    295000   300.5726       0.1475         6.026665      -65975.739      74.78487      -20050.103    
    300000   297.69982      0.15           6.2254997     -65939.372      74.9478       -20789.02     
    305000   298.14755      0.1525         6.2673216     -65915.876      75.11073      -20935.098    
    310000   299.81756      0.155          6.3292309     -65891.237      75.27366      -20948.199    
    315000   300.14903      0.1575         6.4741581     -65859.807      75.43659      -21617.562    
    320000   300.45559      0.16           6.6437133     -65828.97       75.59952      -22257.354    
    325000   300.84359      0.1625         6.7277739     -65799.322      75.76245      -22547.142    
    330000   301.68802      0.165          6.8577202     -65762.813      75.92538      -23268.793    
    335000   297.94753      0.1675         6.8845845     -65731.265      76.08831      -23438.2      
    340000   298.99         0.17           7.0029813     -65698.959      76.25124      -23719.996    
    345000   298.47174      0.1725         7.0742774     -65664.613      76.41417      -23760.35     
    350000   298.48525      0.175          7.1473392     -65638.949      76.5771       -24018.305    
    355000   297.20927      0.1775         7.2196328     -65604.731      76.74003      -24030.196    
    360000   300.24394      0.18           7.2907188     -65572.036      76.90296      -24086.917    
    365000   301.22882      0.1825         7.3251384     -65547.973      77.06589      -24147.026    
    370000   303.60119      0.185          7.5087121     -65516.152      77.22882      -25055.489    
    375000   299.05693      0.1875         7.5504178     -65479.896      77.39175      -25055.448    
    380000   298.97598      0.19           7.6507189     -65441.521      77.55468      -25547.506    
    385000   297.68773      0.1925         7.7799465     -65411.078      77.71761      -25708.3      
    390000   297.02162      0.195          7.8730753     -65365.058      77.88054      -26270.15     
    395000   301.04708      0.1975         7.9595988     -65342.575      78.04347      -26489.283    
    400000   304.79472      0.2            8.0377563     -65299.328      78.2064       -26679.604    
Loop time of 13673.9 on 1 procs for 400000 steps with 14748 atoms

Performance: 2.527 ns/day, 9.496 hours/ns, 29.253 timesteps/s, 431.421 katom-step/s
92.7% CPU use with 1 MPI tasks x 1 OpenMP threads

MPI task timing breakdown:
Section |  min time  |  avg time  |  max time  |%varavg| %total
---------------------------------------------------------------
Pair    | 13400      | 13400      | 13400      |   0.0 | 98.00
Neigh   | 53.882     | 53.882     | 53.882     |   0.0 |  0.39
Comm    | 5.5479     | 5.5479     | 5.5479     |   0.0 |  0.04
Output  | 0.00596    | 0.00596    | 0.00596    |   0.0 |  0.00
Modify  | 190.62     | 190.62     | 190.62     |   0.0 |  1.39
Other   |            | 23.88      |            |       |  0.17

Nlocal:          14748 ave       14748 max       14748 min
Histogram: 1 0 0 0 0 0 0 0 0 0
Nghost:           2037 ave        2037 max        2037 min
Histogram: 1 0 0 0 0 0 0 0 0 0
Neighs:              0 ave           0 max           0 min
Histogram: 1 0 0 0 0 0 0 0 0 0
FullNghs:       410006 ave      410006 max      410006 min
Histogram: 1 0 0 0 0 0 0 0 0 0

Total # of neighbors = 410006
Ave neighs/atom = 27.800787
Neighbor list builds = 2781
Dangerous builds = 0
DONE RAD=7 RATE=0.0005 atoms=14748 finalstrain=0.2000000000000000111
Total wall time: 4:04:09
