LAMMPS (7 Feb 2024 - Update 1)
OMP_NUM_THREADS environment is not set. Defaulting to 1 thread. (src/comm.cpp:98)
  using 1 OpenMP thread(s) per MPI task
Lattice spacing in x,y,z = 5.431 5.431 5.431
Created orthogonal box = (-81.465 -81.465 0) to (81.465 81.465 65.172)
  1 by 1 by 1 MPI processor grid
Created 14748 atoms
  using lattice units in orthogonal box = (-81.481293 -81.481293 0) to (81.481293 81.481293 65.172)
  create_atoms CPU = 0.004 seconds
Reading tersoff potential file Si.tersoff with DATE: 2007-10-25
Neighbor list info ...
  update: every = 1 steps, delay = 0 steps, check = yes
  max neighbors/atom: 2000, page size: 100000
  master list distance cutoff = 5.2
  ghost atom cutoff = 5.2
  binsize = 2.6, bins = 63 63 26
  1 neighbor lists, perpetual/occasional/extra = 1 0 0
  (1) pair tersoff, perpetual
      attributes: full, newton on
      pair build: full/bin/atomonly
      stencil: full/bin/3d
      bin: standard
Setting up cg style minimization ...
  Unit style    : metal
  Current step  : 0
Per MPI rank memory allocation (min/avg/max) = 9.114 | 9.114 | 9.114 Mbytes
   Step          Temp          E_pair         E_mol          TotEng         Press          Volume    
         0   0             -66648.639      0             -66648.639     -2229.6919      377093.37    
        26   0             -66658.459      0             -66658.459     -132.44183      377093.37    
Loop time of 1.59195 on 1 procs for 26 steps with 14748 atoms

92.6% CPU use with 1 MPI tasks x 1 OpenMP threads

Minimization stats:
  Stopping criterion = energy tolerance
  Energy initial, next-to-last, final = 
     -66648.6385080089  -66658.4587175514  -66658.4593717473
  Force two-norm initial, final = 14.966484 0.098294504
  Force max component initial, final = 0.4601903 0.0025251828
  Final line search alpha, max atom move = 1 0.0025251828
  Iterations, force evaluations = 26 52

MPI task timing breakdown:
Section |  min time  |  avg time  |  max time  |%varavg| %total
---------------------------------------------------------------
Pair    | 1.5757     | 1.5757     | 1.5757     |   0.0 | 98.98
Neigh   | 0          | 0          | 0          |   0.0 |  0.00
Comm    | 0.00085057 | 0.00085057 | 0.00085057 |   0.0 |  0.05
Output  | 0          | 0          | 0          |   0.0 |  0.00
Modify  | 0          | 0          | 0          |   0.0 |  0.00
Other   |            | 0.01542    |            |       |  0.97

Nlocal:          14748 ave       14748 max       14748 min
Histogram: 1 0 0 0 0 0 0 0 0 0
Nghost:           2153 ave        2153 max        2153 min
Histogram: 1 0 0 0 0 0 0 0 0 0
Neighs:              0 ave           0 max           0 min
Histogram: 1 0 0 0 0 0 0 0 0 0
FullNghs:       391440 ave      391440 max      391440 min
Histogram: 1 0 0 0 0 0 0 0 0 0

Total # of neighbors = 391440
Ave neighs/atom = 26.541904
Neighbor list builds = 0
Dangerous builds = 0
Setting up Verlet run ...
  Unit style    : metal
  Current step  : 0
  Time step     : 0.001
Per MPI rank memory allocation (min/avg/max) = 6.866 | 6.866 | 6.866 Mbytes
   Step          Temp          PotEng         Press           Pzz             Lz      
         0   300           -66658.459      1495.7482      1388.2331      65.172       
      1000   300.50162     -66538.5        714.31626     -458.01126      65.172       
      2000   301.56514     -66736.103     -876.74568     -1770.785       65.172       
      3000   300.46586     -66798.889     -1318.886      -2512.3702      65.172       
      4000   300.53216     -66824.241      544.50194     -1119.9328      65.172       
      5000   298.43752     -66831.425     -1335.6973     -2686.4983      65.172       
      6000   301.7324      -66841.69      -1495.1971     -3036.1054      65.172       
      7000   301.7253      -66836.642      457.24502     -1101.0447      65.172       
      8000   298.13133     -66847.593     -976.62009     -2348.2882      65.172       
      9000   302.04962     -66845.155     -1549.8023     -2972.6615      65.172       
     10000   299.14144     -66850.665      342.45249     -1442.2284      65.172       
     11000   302.51053     -66843.952     -1348.3433     -2859.375       65.172       
     12000   300.59046     -66856.529     -1209.1799     -2803.3216      65.172       
     13000   303.17286     -66855.847      366.82226     -1372.8916      65.172       
     14000   296.7729      -66856.136     -1492.4433     -3011.9716      65.172       
     15000   304.47872     -66858.23      -722.43933     -2177.6732      65.172       
     16000   301.27647     -66860.466      114.74834     -1465.1574      65.172       
     17000   300.63078     -66868.445     -1524.1055     -2954.4527      65.172       
     18000   297.99245     -66860.896     -1036.3886     -2492.5632      65.172       
     19000   296.53901     -66860.938      436.07655     -1218.956       65.172       
     20000   299.99        -66864.66      -1400.4939     -2808.7188      65.172       
     21000   301.3466      -66860.013     -1165.771      -2855.3913      65.172       
     22000   304.41494     -66866.587      235.31286     -1507.1979      65.172       
     23000   298.15505     -66861.092     -1485.3239     -2941.3046      65.172       
     24000   301.03806     -66866.023     -1004.2858     -2568.1931      65.172       
     25000   301.17069     -66870.066      235.42447     -1406.1244      65.172       
     26000   297.64656     -66859.876     -1635.0382     -3040.7405      65.172       
     27000   300.19969     -66863.819     -1053.7589     -2861.8169      65.172       
     28000   297.68958     -66871.305      206.34477     -1406.2318      65.172       
     29000   297.84006     -66864.071     -1758.0168     -3322.0257      65.172       
     30000   299.08455     -66866.768     -706.42272     -2204.2568      65.172       
Loop time of 979.431 on 1 procs for 30000 steps with 14748 atoms

Performance: 2.646 ns/day, 9.069 hours/ns, 30.630 timesteps/s, 451.732 katom-step/s
92.4% CPU use with 1 MPI tasks x 1 OpenMP threads

MPI task timing breakdown:
Section |  min time  |  avg time  |  max time  |%varavg| %total
---------------------------------------------------------------
Pair    | 965.47     | 965.47     | 965.47     |   0.0 | 98.57
Neigh   | 3.9386     | 3.9386     | 3.9386     |   0.0 |  0.40
Comm    | 0.48697    | 0.48697    | 0.48697    |   0.0 |  0.05
Output  | 0.0040139  | 0.0040139  | 0.0040139  |   0.0 |  0.00
Modify  | 7.6966     | 7.6966     | 7.6966     |   0.0 |  0.79
Other   |            | 1.832      |            |       |  0.19

Nlocal:          14748 ave       14748 max       14748 min
Histogram: 1 0 0 0 0 0 0 0 0 0
Nghost:           2198 ave        2198 max        2198 min
Histogram: 1 0 0 0 0 0 0 0 0 0
Neighs:              0 ave           0 max           0 min
Histogram: 1 0 0 0 0 0 0 0 0 0
FullNghs:       400654 ave      400654 max      400654 min
Histogram: 1 0 0 0 0 0 0 0 0 0

Total # of neighbors = 400654
Ave neighs/atom = 27.166667
Neighbor list builds = 237
Dangerous builds = 0
Setting up Verlet run ...
  Unit style    : metal
  Current step  : 0
  Time step     : 0.001
Per MPI rank memory allocation (min/avg/max) = 7.248 | 7.248 | 7.248 Mbytes
   Step          Temp         v_strain     v_stress_GPa      PotEng           Lz           Press     
         0   299.08455      0              0.21999948    -66866.768      65.172        -705.05685    
      5000   301.1801       0.005          0.49647377    -66866.651      65.49786      -2291.4308    
     10000   298.46328      0.01           0.53015806    -66863.882      65.82372      -1251.0215    
     15000   297.55079      0.015          0.73167768    -66851.955      66.14958      -2147.2419    
     20000   300.36892      0.02           1.0259313     -66848.702      66.47544      -3920.679     
     25000   298.6647       0.025          1.1720941     -66831.651      66.8013       -4128.8365    
     30000   297.48713      0.03           1.2717138     -66826.761      67.12716      -3671.873     
     35000   297.70603      0.035          1.564089      -66811.243      67.45302      -5362.0939    
     40000   300.98381      0.04           1.7754322     -66794.064      67.77888      -6361.7396    
     45000   298.92279      0.045          1.8951002     -66769.33       68.10474      -6032.2373    
     50000   299.02411      0.05           2.0445325     -66747.33       68.4306       -6226.4008    
     55000   299.80935      0.055          2.3013639     -66731.165      68.75646      -7624.3364    
     60000   303.35611      0.06           2.582995      -66704.956      69.08232      -9091.4048    
     65000   296.58292      0.065          2.7694378     -66672.189      69.40818      -9365.1809    
     70000   302.89927      0.07           2.8863098     -66649.765      69.73404      -9150.3456    
     75000   298.64559      0.075          3.061982      -66609.982      70.0599       -9681.1089    
     80000   300.42644      0.08           3.290168      -66575.444      70.38576      -10938.154    
     85000   298.64483      0.085          3.5739728     -66539.212      70.71162      -12287.647    
     90000   301.01908      0.09           3.7594648     -66504.177      71.03748      -12730.184    
     95000   304.81352      0.095          3.9436027     -66455.746      71.36334      -12965.647    
    100000   297.82485      0.1            4.1436513     -66424.702      71.6892       -13395.689    
    105000   299.75714      0.105          4.3868709     -66383.449      72.01506      -14573.655    
    110000   299.594        0.11           4.618966      -66332.643      72.34092      -15641.648    
    115000   300.52661      0.115          4.8769432     -66283.356      72.66678      -16638.628    
    120000   299.11066      0.12           5.0759777     -66241.097      72.99264      -17089.521    
    125000   301.54211      0.125          5.1932146     -66185.21       73.3185       -17409.504    
    130000   297.89392      0.13           5.3623246     -66144.439      73.64436      -17452.267    
    135000   302.29217      0.135          5.6129634     -66083.013      73.97022      -18462.815    
    140000   298.88605      0.14           5.787211      -66030.677      74.29608      -18904.2      
    145000   301.08391      0.145          5.9755213     -65971.519      74.62194      -19736.871    
    150000   298.25619      0.15           6.2413053     -65913.556      74.9478       -20779.126    
    155000   301.8284       0.155          6.4552277     -65855.13       75.27366      -21676.182    
    160000   301.27487      0.16           6.625271      -65794.623      75.59952      -22320.734    
    165000   299.49851      0.165          6.8498898     -65728.125      75.92538      -23186.803    
    170000   303.70692      0.17           6.9903558     -65669.167      76.25124      -23329.838    
    175000   297.53291      0.175          7.2086224     -65603.489      76.5771       -24303.328    
    180000   299.50643      0.18           7.3836662     -65546.36       76.90296      -24817.709    
    185000   299.3206       0.185          7.5155606     -65473.841      77.22882      -25231.671    
    190000   302.37296      0.19           7.7544877     -65412.379      77.55468      -26214.895    
    195000   302.20017      0.195          7.8464623     -65347.931      77.88054      -26302.252    
    200000   301.60383      0.2            7.9062857     -65292.51       78.2064       -26422.12     
Loop time of 6395.48 on 1 procs for 200000 steps with 14748 atoms

Performance: 2.702 ns/day, 8.883 hours/ns, 31.272 timesteps/s, 461.201 katom-step/s
98.4% CPU use with 1 MPI tasks x 1 OpenMP threads

MPI task timing breakdown:
Section |  min time  |  avg time  |  max time  |%varavg| %total
---------------------------------------------------------------
Pair    | 6266.4     | 6266.4     | 6266.4     |   0.0 | 97.98
Neigh   | 25.345     | 25.345     | 25.345     |   0.0 |  0.40
Comm    | 2.4695     | 2.4695     | 2.4695     |   0.0 |  0.04
Output  | 0.0029252  | 0.0029252  | 0.0029252  |   0.0 |  0.00
Modify  | 90.152     | 90.152     | 90.152     |   0.0 |  1.41
Other   |            | 11.13      |            |       |  0.17

Nlocal:          14748 ave       14748 max       14748 min
Histogram: 1 0 0 0 0 0 0 0 0 0
Nghost:           2029 ave        2029 max        2029 min
Histogram: 1 0 0 0 0 0 0 0 0 0
Neighs:              0 ave           0 max           0 min
Histogram: 1 0 0 0 0 0 0 0 0 0
FullNghs:       410592 ave      410592 max      410592 min
Histogram: 1 0 0 0 0 0 0 0 0 0

Total # of neighbors = 410592
Ave neighs/atom = 27.840521
Neighbor list builds = 1430
Dangerous builds = 0
DONE RAD=7 RATE=0.001 atoms=14748 finalstrain=0.2000000000000000111
Total wall time: 2:02:56
