LAMMPS (7 Feb 2024 - Update 1)
OMP_NUM_THREADS environment is not set. Defaulting to 1 thread. (src/comm.cpp:98)
  using 1 OpenMP thread(s) per MPI task
Lattice spacing in x,y,z = 5.431 5.431 5.431
Created orthogonal box = (-43.448 -43.448 0) to (43.448 43.448 54.31)
  1 by 1 by 1 MPI processor grid
Created 4050 atoms
  using lattice units in orthogonal box = (-43.45669 -43.45669 0) to (43.45669 43.45669 54.31)
  create_atoms CPU = 0.002 seconds
Reading tersoff potential file Si.tersoff with DATE: 2007-10-25
Neighbor list info ...
  update: every = 1 steps, delay = 0 steps, check = yes
  max neighbors/atom: 2000, page size: 100000
  master list distance cutoff = 5.2
  ghost atom cutoff = 5.2
  binsize = 2.6, bins = 34 34 21
  1 neighbor lists, perpetual/occasional/extra = 1 0 0
  (1) pair tersoff, perpetual
      attributes: full, newton on
      pair build: full/bin/atomonly
      stencil: full/bin/3d
      bin: standard
Setting up cg style minimization ...
  Unit style    : metal
  Current step  : 0
Per MPI rank memory allocation (min/avg/max) = 4.671 | 4.671 | 4.671 Mbytes
   Step          Temp          E_pair         E_mol          TotEng         Press          Volume    
         0   0             -17934.535      0             -17934.535     -3905.1575      102604.58    
        30   0             -17939.133      0             -17939.133     -63.27535       102604.58    
Loop time of 0.505741 on 1 procs for 30 steps with 4050 atoms

96.3% CPU use with 1 MPI tasks x 1 OpenMP threads

Minimization stats:
  Stopping criterion = energy tolerance
  Energy initial, next-to-last, final = 
     -17934.5349604088  -17939.1330526964  -17939.1332161943
  Force two-norm initial, final = 10.346097 0.043322903
  Force max component initial, final = 0.4601903 0.0011509129
  Final line search alpha, max atom move = 1 0.0011509129
  Iterations, force evaluations = 30 60

MPI task timing breakdown:
Section |  min time  |  avg time  |  max time  |%varavg| %total
---------------------------------------------------------------
Pair    | 0.50081    | 0.50081    | 0.50081    |   0.0 | 99.02
Neigh   | 0          | 0          | 0          |   0.0 |  0.00
Comm    | 0.00034523 | 0.00034523 | 0.00034523 |   0.0 |  0.07
Output  | 0          | 0          | 0          |   0.0 |  0.00
Modify  | 0          | 0          | 0          |   0.0 |  0.00
Other   |            | 0.004591   |            |       |  0.91

Nlocal:           4050 ave        4050 max        4050 min
Histogram: 1 0 0 0 0 0 0 0 0 0
Nghost:            709 ave         709 max         709 min
Histogram: 1 0 0 0 0 0 0 0 0 0
Neighs:              0 ave           0 max           0 min
Histogram: 1 0 0 0 0 0 0 0 0 0
FullNghs:       103000 ave      103000 max      103000 min
Histogram: 1 0 0 0 0 0 0 0 0 0

Total # of neighbors = 103000
Ave neighs/atom = 25.432099
Neighbor list builds = 0
Dangerous builds = 0
Setting up Verlet run ...
  Unit style    : metal
  Current step  : 0
  Time step     : 0.001
Per MPI rank memory allocation (min/avg/max) = 3.546 | 3.546 | 3.546 Mbytes
   Step          Temp          PotEng         Press           Pzz             Lz      
         0   300           -17939.133      1586.9881      1401.7303      54.31        
       500   333.94154     -17917.985      852.26116     -23.200907      54.31        
      1000   320.21084     -18053.387     -2716.7615     -4030.4555      54.31        
      1500   310.72212     -18088.162      96.097758     -1601.8981      54.31        
      2000   293.76921     -18120.452     -1148.3072     -3280.2017      54.31        
      2500   295.07327     -18130.392     -1826.6437     -4659.7725      54.31        
      3000   298.20564     -18152.66      -126.77826     -2632.0697      54.31        
      3500   304.09559     -18158.985     -2413.2226     -4844.4251      54.31        
      4000   291.9094      -18167.489     -42.695836     -3103.8193      54.31        
      4500   297.62693     -18173.798     -2115.3623     -4811.644       54.31        
      5000   293.37137     -18176.297     -1182.3685     -4301.9703      54.31        
      5500   304.60755     -18179.677     -1152.5811     -4152.8599      54.31        
      6000   303.75028     -18181.36      -1568.2191     -5054.1503      54.31        
      6500   301.88261     -18182.678     -562.33237     -3860.4472      54.31        
      7000   303.77749     -18187.646     -2312.9583     -5325.912       54.31        
      7500   299.35971     -18186.159     -1653.3935     -4934.3131      54.31        
      8000   296.91218     -18189.111     -1370.7775     -4888.744       54.31        
      8500   298.63083     -18193.207     -1965.9461     -5135.3085      54.31        
      9000   300.59117     -18195.22      -927.19741     -4429.8619      54.31        
      9500   303.12055     -18192.43      -2445.8923     -5444.1815      54.31        
     10000   296.6465      -18194.897     -1706.6177     -4844.2976      54.31        
     10500   300.40591     -18198.176     -1614.9177     -4346.3698      54.31        
     11000   299.28735     -18191.446     -1168.3088     -4595.1263      54.31        
     11500   300.72119     -18191.204     -1523.8238     -4753.7947      54.31        
     12000   299.70984     -18192.399     -1944.3446     -5125.0546      54.31        
     12500   300.16099     -18193.594     -1031.0403     -4078.8464      54.31        
     13000   291.71265     -18194.752     -2764.5404     -5808.5674      54.31        
     13500   299.7967      -18195.314     -311.1787      -3987.8212      54.31        
     14000   297.39155     -18197.256     -2167.225      -5275.6076      54.31        
     14500   300.28844     -18196.573     -1200.3201     -4826.1739      54.31        
     15000   301.19726     -18195.104     -1407.6152     -4089.0917      54.31        
     15500   306.47059     -18193.37      -1765.8396     -5314.2248      54.31        
     16000   305.65134     -18195.714     -2126.5866     -5531.8544      54.31        
     16500   305.87561     -18196.557     -1876.3799     -4934.9513      54.31        
     17000   300.13585     -18196.491     -1188.8971     -4874.608       54.31        
     17500   298.79131     -18197.516     -2814.0382     -5643.7047      54.31        
     18000   300.52305     -18195.601     -749.87643     -4210.6066      54.31        
     18500   295.48693     -18193.749     -2738.3139     -6322.5665      54.31        
     19000   302.92899     -18199.643     -791.46627     -4579.5006      54.31        
     19500   295.4809      -18200.311     -2346.2639     -5907.1772      54.31        
     20000   301.70844     -18199.241     -1591.7194     -5052.557       54.31        
     20500   296.79159     -18201.046     -1259.6953     -4671.7202      54.31        
     21000   307.16443     -18198.718     -2147.1275     -5940.5405      54.31        
     21500   303.81751     -18199.389     -1448.417      -4798.2637      54.31        
     22000   292.82637     -18199.496     -2641.5478     -5442.1612      54.31        
     22500   303.65577     -18203.718     -939.90464     -4458.6344      54.31        
     23000   306.57684     -18203.155     -2475.9779     -6111.1191      54.31        
     23500   299.55427     -18199.075     -1605.4063     -5466.0432      54.31        
     24000   301.65        -18201.934     -1350.349      -4975.1747      54.31        
     24500   296.58732     -18201.182     -2420.1683     -5859.4483      54.31        
     25000   293.10069     -18203.752     -651.98072     -3793.3665      54.31        
     25500   301.34538     -18201.881     -2639.8718     -5985.5947      54.31        
     26000   300.86644     -18203.163     -2070.9753     -5228.5892      54.31        
     26500   295.5575      -18207.284     -1517.6739     -5242.013       54.31        
     27000   298.04781     -18205.193     -2022.3327     -5551.2571      54.31        
     27500   301.57009     -18202.666     -420.29408     -4148.1292      54.31        
     28000   294.25897     -18202.032     -3064.0077     -6414.5555      54.31        
     28500   300.57065     -18203.615     -819.81833     -4648.2526      54.31        
     29000   299.80786     -18201.035     -3370.3778     -6136.066       54.31        
     29500   303.52336     -18205.528     -1694.9111     -5105.6529      54.31        
     30000   301.57571     -18206.117     -1373.1323     -4901.5677      54.31        
Loop time of 282.511 on 1 procs for 30000 steps with 4050 atoms

Performance: 9.175 ns/day, 2.616 hours/ns, 106.191 timesteps/s, 430.073 katom-step/s
95.1% CPU use with 1 MPI tasks x 1 OpenMP threads

MPI task timing breakdown:
Section |  min time  |  avg time  |  max time  |%varavg| %total
---------------------------------------------------------------
Pair    | 278.91     | 278.91     | 278.91     |   0.0 | 98.73
Neigh   | 1.1691     | 1.1691     | 1.1691     |   0.0 |  0.41
Comm    | 0.14381    | 0.14381    | 0.14381    |   0.0 |  0.05
Output  | 0.0034847  | 0.0034847  | 0.0034847  |   0.0 |  0.00
Modify  | 1.9096     | 1.9096     | 1.9096     |   0.0 |  0.68
Other   |            | 0.3696     |            |       |  0.13

Nlocal:           4050 ave        4050 max        4050 min
Histogram: 1 0 0 0 0 0 0 0 0 0
Nghost:            732 ave         732 max         732 min
Histogram: 1 0 0 0 0 0 0 0 0 0
Neighs:              0 ave           0 max           0 min
Histogram: 1 0 0 0 0 0 0 0 0 0
FullNghs:       106576 ave      106576 max      106576 min
Histogram: 1 0 0 0 0 0 0 0 0 0

Total # of neighbors = 106576
Ave neighs/atom = 26.315062
Neighbor list builds = 201
Dangerous builds = 0
Setting up Verlet run ...
  Unit style    : metal
  Current step  : 0
  Time step     : 0.001
Per MPI rank memory allocation (min/avg/max) = 3.674 | 3.674 | 3.674 Mbytes
   Step          Temp         v_strain     v_stress_GPa      PotEng           Lz           Press     
         0   301.57571      0              0.49478103    -18206.117      54.31         -1386.0868    
      2000   293.96282      0.001          0.48326574    -18202.677      54.36431      -1471.9873    
      4000   298.03653      0.002          0.66258943    -18203.002      54.41862      -2398.6207    
      6000   298.32929      0.003          0.61774023    -18203.625      54.47293      -2173.0975    
      8000   302.15652      0.004          0.62445626    -18208.178      54.52724      -1723.0269    
     10000   292.25732      0.005          0.72118954    -18204.665      54.58155      -2353.5211    
     12000   292.55734      0.006          0.71939193    -18205.148      54.63586      -2599.9498    
     14000   305.39995      0.007          0.71651427    -18207.815      54.69017      -2636.8295    
     16000   305.29429      0.008          0.83496272    -18202.725      54.74448      -2976.3053    
     18000   302.28104      0.009          0.73141827    -18202.814      54.79879      -2392.0789    
     20000   300.08756      0.01           0.80585143    -18205.901      54.8531       -2481.1579    
     22000   303.58658      0.011          0.87186688    -18203.341      54.90741      -2478.3618    
     24000   293.83156      0.012          1.0034248     -18202.949      54.96172      -3578.1732    
     26000   294.29212      0.013          0.9340797     -18205.313      55.01603      -3173.9828    
     28000   296.66754      0.014          1.0100406     -18206.911      55.07034      -3489.9091    
     30000   300.34437      0.015          1.0507301     -18202.21       55.12465      -3604.8502    
     32000   296.23718      0.016          1.0805183     -18202.138      55.17896      -3570.2244    
     34000   299.53182      0.017          1.0627558     -18199.071      55.23327      -3321.1012    
     36000   304.68288      0.018          1.1606398     -18203.47       55.28758      -3706.0086    
     38000   301.30032      0.019          1.1637567     -18199.643      55.34189      -4121.1055    
     40000   302.07499      0.02           1.1605377     -18201.322      55.3962       -3877.0119    
     42000   304.13731      0.021          1.1924128     -18199.922      55.45051      -3450.6222    
     44000   302.65042      0.022          1.27803       -18199.377      55.50482      -4405.873     
     46000   303.59163      0.023          1.3277475     -18199.788      55.55913      -4467.6885    
     48000   304.52122      0.024          1.2887691     -18200.786      55.61344      -4211.1668    
     50000   303.45977      0.025          1.3089139     -18200.423      55.66775      -4186.3667    
     52000   299.96319      0.026          1.4656625     -18199.157      55.72206      -5432.9182    
     54000   295.08505      0.027          1.4430946     -18199.874      55.77637      -5035.6661    
     56000   304.67515      0.028          1.3118683     -18196.605      55.83068      -3850.4994    
     58000   300.47972      0.029          1.4830703     -18194.028      55.88499      -4976.5182    
     60000   302.96575      0.03           1.550594      -18198.151      55.9393       -5570.5459    
     62000   295.42337      0.031          1.5008905     -18197.538      55.99361      -5014.6118    
     64000   303.26189      0.032          1.4920327     -18198.847      56.04792      -4521.0774    
     66000   297.09501      0.033          1.6465797     -18195.186      56.10223      -5712.0965    
     68000   302.95987      0.034          1.6888478     -18197.117      56.15654      -5329.082     
     70000   301.93555      0.035          1.6573508     -18195.387      56.21085      -5275.6316    
     72000   299.04813      0.036          1.6508232     -18193.552      56.26516      -4957.6282    
     74000   297.68783      0.037          1.6750273     -18194.972      56.31947      -5453.8585    
     76000   298.38278      0.038          1.7874201     -18198.929      56.37378      -5785.6872    
     78000   293.44506      0.039          1.7571105     -18195.096      56.42809      -5531.6435    
     80000   298.84324      0.04           1.8174568     -18193.952      56.4824       -5767.9682    
     82000   300.71352      0.041          1.9029619     -18195.065      56.53671      -6147.4298    
     84000   299.0667       0.042          1.9112604     -18193.149      56.59102      -6573.9856    
     86000   297.23673      0.043          1.9739175     -18190.92       56.64533      -6961.926     
     88000   294.46139      0.044          1.9475797     -18187.586      56.69964      -6419.0955    
     90000   299.62197      0.045          2.0282863     -18188.741      56.75395      -6899.6734    
     92000   298.30106      0.046          1.9523465     -18189.59       56.80826      -6466.7536    
     94000   300.75771      0.047          1.9839318     -18184.637      56.86257      -6095.1909    
     96000   293.40778      0.048          2.0989361     -18184.36       56.91688      -6571.9452    
     98000   298.32607      0.049          2.1602747     -18181.316      56.97119      -7039.6717    
    100000   295.79775      0.05           2.2304804     -18181.121      57.0255       -8419.8308    
    102000   291.12997      0.051          2.2118953     -18181.3        57.07981      -7649.3746    
    104000   301.03215      0.052          2.0663482     -18181.568      57.13412      -6092.2376    
    106000   304.21354      0.053          2.2240635     -18178.786      57.18843      -7948.4854    
    108000   299.83257      0.054          2.2290933     -18175.933      57.24274      -7624.9408    
    110000   303.78093      0.055          2.3578735     -18174.715      57.29705      -7897.3527    
    112000   295.88408      0.056          2.379506      -18178.221      57.35136      -8544.0004    
    114000   297.32551      0.057          2.3709383     -18171.576      57.40567      -7732.5572    
    116000   297.77203      0.058          2.3959931     -18175.547      57.45998      -7621.7453    
    118000   299.85291      0.059          2.447238      -18174.977      57.51429      -8541.3496    
    120000   305.13515      0.06           2.4002195     -18169.993      57.5686       -7833.3578    
    122000   298.02129      0.061          2.5305234     -18173.804      57.62291      -8197.2731    
    124000   304.14804      0.062          2.59548       -18170.233      57.67722      -8915.3978    
    126000   302.14738      0.063          2.6764415     -18166.412      57.73153      -8931.2532    
    128000   302.77558      0.064          2.6413107     -18168.24       57.78584      -8499.402     
    130000   305.53871      0.065          2.6643638     -18169.354      57.84015      -8487.6114    
    132000   301.82118      0.066          2.6954848     -18169.975      57.89446      -8605.2203    
    134000   306.8399       0.067          2.7468604     -18165.182      57.94877      -9282.8028    
    136000   295.24595      0.068          2.8166491     -18160.996      58.00308      -9045.4267    
    138000   295.66189      0.069          2.8253029     -18162.052      58.05739      -9304.9919    
    140000   297.93699      0.07           2.8239614     -18162.922      58.1117       -9284.3025    
    142000   300.40756      0.071          2.9058099     -18159.513      58.16601      -9193.5906    
    144000   299.64674      0.072          2.8696883     -18157.134      58.22032      -9326.6132    
    146000   307.8019       0.073          3.0467203     -18155.663      58.27463      -10335.036    
    148000   303.12067      0.074          3.055058      -18155.267      58.32894      -10001.378    
    150000   303.79046      0.075          3.0464231     -18151.593      58.38325      -9803.3053    
    152000   299.80334      0.076          3.1311338     -18151.594      58.43756      -10504.661    
    154000   298.5245       0.077          3.1854308     -18144.301      58.49187      -11164.572    
    156000   301.42378      0.078          3.1605306     -18145.066      58.54618      -10991.576    
    158000   300.40341      0.079          3.2310407     -18146.011      58.60049      -10378.227    
    160000   296.02072      0.08           3.2052967     -18144.714      58.6548       -9913.7023    
    162000   295.79667      0.081          3.232654      -18141.322      58.70911      -10330.629    
    164000   298.39264      0.082          3.2918949     -18139.692      58.76342      -11369.965    
    166000   307.69969      0.083          3.2992704     -18140.951      58.81773      -10725.606    
    168000   299.55779      0.084          3.3727925     -18135.933      58.87204      -10842.955    
    170000   302.43379      0.085          3.4285036     -18139.863      58.92635      -11232.115    
    172000   305.4618       0.086          3.4529763     -18135.247      58.98066      -11771.535    
    174000   298.40225      0.087          3.57498       -18131.277      59.03497      -12182.895    
    176000   297.56756      0.088          3.6654872     -18129.454      59.08928      -12233.512    
    178000   299.67852      0.089          3.6917826     -18128.308      59.14359      -12258.306    
    180000   300.13558      0.09           3.6543009     -18124.74       59.1979       -11630.248    
    182000   298.84369      0.091          3.6567317     -18121.32       59.25221      -12378.488    
    184000   303.30574      0.092          3.8064778     -18124.901      59.30652      -13180.313    
    186000   303.182        0.093          3.7019456     -18119.317      59.36083      -12493.446    
    188000   301.34157      0.094          3.6406233     -18117.595      59.41514      -11810.867    
    190000   303.04019      0.095          3.747675      -18112.675      59.46945      -12072.719    
    192000   303.33525      0.096          3.8210595     -18112.721      59.52376      -12548.843    
    194000   295.65114      0.097          4.0102595     -18113.064      59.57807      -14420.843    
    196000   300.81088      0.098          4.0447217     -18112.666      59.63238      -13741.952    
    198000   299.81168      0.099          3.9334127     -18105.601      59.68669      -12778.666    
    200000   304.82165      0.1            3.9979828     -18109.276      59.741        -13970.713    
    202000   300.21453      0.101          4.0022634     -18101.482      59.79531      -13270.428    
    204000   296.51624      0.102          4.0190368     -18106.212      59.84962      -13113.574    
    206000   300.02572      0.103          3.9778172     -18098.6        59.90393      -12704.265    
    208000   295.8416       0.104          4.0733542     -18101.511      59.95824      -13298.627    
    210000   297.45775      0.105          4.1036737     -18095.9        60.01255      -13776.761    
    212000   302.04986      0.106          4.1318275     -18098.871      60.06686      -13523.467    
    214000   297.30394      0.107          4.227025      -18093.681      60.12117      -14446.645    
    216000   296.34633      0.108          4.2584487     -18090.691      60.17548      -14049.731    
    218000   299.50618      0.109          4.2663847     -18087.706      60.22979      -13876.858    
    220000   300.29017      0.11           4.2349079     -18091.961      60.2841       -13806.959    
    222000   305.31085      0.111          4.401306      -18087.85       60.33841      -14829.759    
    224000   305.69389      0.112          4.4644585     -18083.087      60.39272      -15335.285    
    226000   297.80503      0.113          4.4181185     -18079.455      60.44703      -14559.426    
    228000   298.84865      0.114          4.387229      -18078.506      60.50134      -14718.485    
    230000   301.35069      0.115          4.3926486     -18080.673      60.55565      -14340.445    
    232000   300.58788      0.116          4.5316523     -18076.647      60.60996      -15032.153    
    234000   296.86066      0.117          4.5500604     -18074.156      60.66427      -15271.74     
    236000   301.84993      0.118          4.6018332     -18074.047      60.71858      -15610.267    
    238000   304.96531      0.119          4.4940105     -18072.634      60.77289      -14934.486    
    240000   307.44529      0.12           4.6658432     -18064.578      60.8272       -15410.728    
    242000   301.60511      0.121          4.6360206     -18063.305      60.88151      -14760.798    
    244000   299.25741      0.122          4.6498265     -18064.065      60.93582      -15380.199    
    246000   299.753        0.123          4.6392147     -18057.782      60.99013      -15310.79     
    248000   296.27141      0.124          4.8555852     -18052.991      61.04444      -16323.799    
    250000   298.85428      0.125          4.8430009     -18050.355      61.09875      -16487.535    
    252000   298.68535      0.126          4.9666399     -18049.462      61.15306      -17023.049    
    254000   293.40218      0.127          4.9484236     -18052.651      61.20737      -16757.402    
    256000   301.6918       0.128          4.9429334     -18042.581      61.26168      -16741.73     
    258000   306.8314       0.129          4.9241066     -18041.344      61.31599      -16574.791    
    260000   294.733        0.13           4.9256703     -18043.691      61.3703       -16154.578    
    262000   300.37535      0.131          5.0035258     -18042.373      61.42461      -16499.214    
    264000   303.05348      0.132          4.8193162     -18037.898      61.47892      -15016.751    
    266000   304.43         0.133          5.0275687     -18035.287      61.53323      -16293.52     
    268000   297.06726      0.134          5.0184982     -18029.501      61.58754      -16649.427    
    270000   301.25069      0.135          4.9308661     -18027.724      61.64185      -15621.75     
    272000   299.19763      0.136          5.1037207     -18027.373      61.69616      -16794.755    
    274000   301.81448      0.137          5.2314982     -18025.589      61.75047      -17679.628    
    276000   304.94638      0.138          5.1706553     -18024.854      61.80478      -17296.734    
    278000   299.81801      0.139          5.2060972     -18022.813      61.85909      -17927.499    
    280000   296.28116      0.14           5.2902399     -18020.231      61.9134       -17566.942    
    282000   302.01878      0.141          5.159593      -18019.202      61.96771      -17322.054    
    284000   300.36695      0.142          5.217636      -18016.974      62.02202      -17466.595    
    286000   296.12227      0.143          5.3588006     -18013.357      62.07633      -17841.273    
    288000   296.94311      0.144          5.3471918     -18010.269      62.13064      -17267.73     
    290000   293.92962      0.145          5.3631174     -18008.521      62.18495      -17952.368    
    292000   296.89347      0.146          5.3973477     -18007.534      62.23926      -17930.667    
    294000   298.61309      0.147          5.4151359     -18005.639      62.29357      -18063.446    
    296000   305.20075      0.148          5.4809943     -17998.072      62.34788      -18010        
    298000   297.71005      0.149          5.4712224     -17999.959      62.40219      -18503.586    
    300000   299.09105      0.15           5.423052      -17998.881      62.4565       -18117.498    
    302000   295.1734       0.151          5.5967079     -17991.597      62.51081      -19049.141    
    304000   299.63237      0.152          5.6225613     -17991.86       62.56512      -19175.226    
    306000   307.02048      0.153          5.6821005     -17987.339      62.61943      -19256.409    
    308000   299.84505      0.154          5.6833521     -17983.965      62.67374      -19505.389    
    310000   301.2438       0.155          5.7817503     -17985.654      62.72805      -19781.988    
    312000   297.35878      0.156          5.7475689     -17982.791      62.78236      -19458.793    
    314000   299.42364      0.157          5.6665751     -17981.342      62.83667      -19181.263    
    316000   302.9137       0.158          5.6274149     -17979.471      62.89098      -18363.642    
    318000   295.94047      0.159          5.689301      -17974.588      62.94529      -18384.606    
    320000   295.59626      0.16           5.8554353     -17973.613      62.9996       -19456.371    
    322000   297.65682      0.161          5.7657863     -17968.88       63.05391      -18811.041    
    324000   295.9543       0.162          5.8605894     -17962.562      63.10822      -19530.136    
    326000   299.52957      0.163          5.829846      -17963.017      63.16253      -19442.582    
    328000   300.75524      0.164          5.9823801     -17961.88       63.21684      -20255.099    
    330000   295.9276       0.165          5.9305604     -17960.595      63.27115      -19272.702    
    332000   296.39286      0.166          5.8228903     -17951.106      63.32546      -19409.789    
    334000   299.27277      0.167          5.9771624     -17949.945      63.37977      -20281.913    
    336000   293.85416      0.168          5.9376644     -17950.81       63.43408      -19504.171    
    338000   300.74336      0.169          5.9875565     -17943.975      63.48839      -20471.991    
    340000   308.02167      0.17           5.9409411     -17945.563      63.5427       -19852.605    
    342000   301.06111      0.171          6.0443649     -17943.296      63.59701      -20479.956    
    344000   303.90964      0.172          5.9498239     -17940.608      63.65132      -19635.101    
    346000   308.22881      0.173          6.0154039     -17936.23       63.70563      -20669.279    
    348000   299.30243      0.174          5.9696862     -17934.222      63.75994      -19811.633    
    350000   301.379        0.175          6.0663519     -17932.277      63.81425      -19953.974    
    352000   303.6879       0.176          6.1397211     -17929.308      63.86856      -20921.681    
    354000   301.63844      0.177          6.0052648     -17934.166      63.92287      -19845.845    
    356000   307.51709      0.178          6.0186889     -17930.217      63.97718      -20498.296    
    358000   297.29726      0.179          6.12053       -17926.887      64.03149      -20402.939    
    360000   299.63044      0.18           6.0337116     -17928.206      64.0858       -19669.926    
    362000   296.98901      0.181          6.1029987     -17918.725      64.14011      -19985.453    
    364000   298.45814      0.182          6.0735256     -17922.99       64.19442      -20539.803    
    366000   298.66208      0.183          6.2172513     -17920.415      64.24873      -20950.993    
    368000   308.16421      0.184          6.2816891     -17918.882      64.30304      -21110.782    
    370000   306.33046      0.185          6.2761852     -17910.427      64.35735      -20955.399    
    372000   295.61554      0.186          6.2337811     -17909.715      64.41166      -20332.727    
    374000   294.56974      0.187          6.3165244     -17909.487      64.46597      -21129.609    
    376000   292.21055      0.188          6.2467212     -17902.824      64.52028      -20708.528    
    378000   299.13768      0.189          6.2169037     -17906.31       64.57459      -20167.13     
    380000   302.03574      0.19           6.3499822     -17902.374      64.6289       -21038.246    
    382000   294.70374      0.191          6.4165106     -17900.201      64.68321      -21547.006    
    384000   292.45129      0.192          6.3494688     -17891.128      64.73752      -20810.553    
    386000   301.56246      0.193          6.4106346     -17895.581      64.79183      -21753.829    
    388000   302.49055      0.194          6.5253008     -17893.028      64.84614      -22086.297    
    390000   302.62292      0.195          6.4440342     -17888.398      64.90045      -21674.137    
    392000   297.22525      0.196          6.4048894     -17886.479      64.95476      -21744.749    
    394000   306.65113      0.197          6.2948953     -17885.606      65.00907      -21536.248    
    396000   302.53026      0.198          6.4447653     -17880.177      65.06338      -22002.86     
    398000   303.45383      0.199          6.3870479     -17876.059      65.11769      -21595.702    
    400000   301.20434      0.2            6.3401604     -17876.402      65.172        -21542.024    
Loop time of 4133.35 on 1 procs for 400000 steps with 4050 atoms

Performance: 8.361 ns/day, 2.870 hours/ns, 96.774 timesteps/s, 391.934 katom-step/s
94.4% CPU use with 1 MPI tasks x 1 OpenMP threads

MPI task timing breakdown:
Section |  min time  |  avg time  |  max time  |%varavg| %total
---------------------------------------------------------------
Pair    | 4048.6     | 4048.6     | 4048.6     |   0.0 | 97.95
Neigh   | 12.752     | 12.752     | 12.752     |   0.0 |  0.31
Comm    | 2.1828     | 2.1828     | 2.1828     |   0.0 |  0.05
Output  | 1.4005     | 1.4005     | 1.4005     |   0.0 |  0.03
Modify  | 62.448     | 62.448     | 62.448     |   0.0 |  1.51
Other   |            | 6.008      |            |       |  0.15

Nlocal:           4050 ave        4050 max        4050 min
Histogram: 1 0 0 0 0 0 0 0 0 0
Nghost:            629 ave         629 max         629 min
Histogram: 1 0 0 0 0 0 0 0 0 0
Neighs:              0 ave           0 max           0 min
Histogram: 1 0 0 0 0 0 0 0 0 0
FullNghs:       107112 ave      107112 max      107112 min
Histogram: 1 0 0 0 0 0 0 0 0 0

Total # of neighbors = 107112
Ave neighs/atom = 26.447407
Neighbor list builds = 2239
Dangerous builds = 0
Total wall time: 1:13:36
