LAMMPS (7 Feb 2024 - Update 1)
OMP_NUM_THREADS environment is not set. Defaulting to 1 thread. (src/comm.cpp:98)
  using 1 OpenMP thread(s) per MPI task
Lattice spacing in x,y,z = 5.431 5.431 5.431
Created orthogonal box = (-81.465 -81.465 0) to (81.465 81.465 65.172)
  1 by 1 by 1 MPI processor grid
Created 2700 atoms
  using lattice units in orthogonal box = (-81.481293 -81.481293 0) to (81.481293 81.481293 65.172)
  create_atoms CPU = 0.004 seconds
Reading tersoff potential file Si.tersoff with DATE: 2007-10-25
Neighbor list info ...
  update: every = 1 steps, delay = 0 steps, check = yes
  max neighbors/atom: 2000, page size: 100000
  master list distance cutoff = 5.2
  ghost atom cutoff = 5.2
  binsize = 2.6, bins = 63 63 26
  1 neighbor lists, perpetual/occasional/extra = 1 0 0
  (1) pair tersoff, perpetual
      attributes: full, newton on
      pair build: full/bin/atomonly
      stencil: full/bin/3d
      bin: standard
Setting up cg style minimization ...
  Unit style    : metal
  Current step  : 0
Per MPI rank memory allocation (min/avg/max) = 4.243 | 4.243 | 4.243 Mbytes
   Step          Temp          E_pair         E_mol          TotEng         Press          Volume    
         0   0             -11781.033      0             -11781.033     -5277.7537      69341.193    
        27   0             -11785.307      0             -11785.307     -112.75437      69341.193    
Loop time of 0.269922 on 1 procs for 27 steps with 2700 atoms

100.0% CPU use with 1 MPI tasks x 1 OpenMP threads

Minimization stats:
  Stopping criterion = energy tolerance
  Energy initial, next-to-last, final = 
     -11781.0325785608   -11785.306449307  -11785.3065320948
  Force two-norm initial, final = 10.038548 0.032353979
  Force max component initial, final = 0.4601903 0.00097490016
  Final line search alpha, max atom move = 1 0.00097490016
  Iterations, force evaluations = 27 54

MPI task timing breakdown:
Section |  min time  |  avg time  |  max time  |%varavg| %total
---------------------------------------------------------------
Pair    | 0.26745    | 0.26745    | 0.26745    |   0.0 | 99.09
Neigh   | 0          | 0          | 0          |   0.0 |  0.00
Comm    | 0.00014612 | 0.00014612 | 0.00014612 |   0.0 |  0.05
Output  | 0          | 0          | 0          |   0.0 |  0.00
Modify  | 0          | 0          | 0          |   0.0 |  0.00
Other   |            | 0.002322   |            |       |  0.86

Nlocal:           2700 ave        2700 max        2700 min
Histogram: 1 0 0 0 0 0 0 0 0 0
Nghost:            389 ave         389 max         389 min
Histogram: 1 0 0 0 0 0 0 0 0 0
Neighs:              0 ave           0 max           0 min
Histogram: 1 0 0 0 0 0 0 0 0 0
FullNghs:        66384 ave       66384 max       66384 min
Histogram: 1 0 0 0 0 0 0 0 0 0

Total # of neighbors = 66384
Ave neighs/atom = 24.586667
Neighbor list builds = 0
Dangerous builds = 0
Setting up Verlet run ...
  Unit style    : metal
  Current step  : 0
  Time step     : 0.001
Per MPI rank memory allocation (min/avg/max) = 3.118 | 3.118 | 3.118 Mbytes
   Step          Temp          PotEng         Press           Pzz             Lz      
         0   300           -11785.307      1518.6318      1247.9669      65.172       
      1000   325.29217     -11892.595      317.11599     -2032.1341      65.172       
      2000   306.67666     -11954.41      -2509.0176     -4734.4001      65.172       
      3000   293.66395     -11995.95      -1252.1142     -4556.5963      65.172       
      4000   302.72715     -12005.813     -1745.9612     -5408.6769      65.172       
      5000   293.5015      -12021.216     -1302.8815     -4733.4724      65.172       
      6000   302.82086     -12026.838     -1914.6889     -5783.2391      65.172       
      7000   300.33604     -12031.286     -1198.0896     -4695.0037      65.172       
      8000   296.20304     -12033.341     -1776.0625     -5026.1747      65.172       
      9000   302.47624     -12035.824     -1720.9119     -4836.5079      65.172       
     10000   290.6949      -12038.394     -1939.0674     -5447.1049      65.172       
     11000   305.85767     -12041.323     -2327.0522     -5768.0307      65.172       
     12000   294.93866     -12042.97      -1294.0369     -5501.45        65.172       
     13000   298.05947     -12041.371     -1896.6941     -5881.4868      65.172       
     14000   299.29428     -12048.278     -2460.8258     -6005.261       65.172       
     15000   288.7035      -12041.157     -542.89546     -3777.9744      65.172       
     16000   295.48496     -12045.448     -3394.6564     -7293.1365      65.172       
     17000   301.79728     -12048.723     -936.60717     -4374.9125      65.172       
     18000   301.64928     -12043.813     -1966.2834     -5343.5289      65.172       
     19000   301.71697     -12047.916     -2047.3918     -5825.7352      65.172       
     20000   302.59375     -12047.187     -2134.2917     -6494.0566      65.172       
     21000   295.2626      -12050.254     -1717.016      -4922.916       65.172       
     22000   298.18815     -12049.877     -2705.5222     -6444.1278      65.172       
     23000   305.90466     -12046.451     -2529.4994     -6116.5326      65.172       
     24000   292.18818     -12047.205     -1292.376      -5246.8859      65.172       
     25000   303.94664     -12047.851     -1934.9468     -4846.8226      65.172       
     26000   296.55811     -12048.254     -1097.2949     -4773.2271      65.172       
     27000   306.04991     -12049.012     -1583.6322     -4967.5685      65.172       
     28000   298.28959     -12049.892     -1417.1588     -5387.006       65.172       
     29000   297.97366     -12049.592     -2648.3961     -6845.8543      65.172       
     30000   289.92873     -12053.979     -2047.5598     -6541.8456      65.172       
Loop time of 173.747 on 1 procs for 30000 steps with 2700 atoms

Performance: 14.918 ns/day, 1.609 hours/ns, 172.665 timesteps/s, 466.195 katom-step/s
100.0% CPU use with 1 MPI tasks x 1 OpenMP threads

MPI task timing breakdown:
Section |  min time  |  avg time  |  max time  |%varavg| %total
---------------------------------------------------------------
Pair    | 171.65     | 171.65     | 171.65     |   0.0 | 98.79
Neigh   | 0.64091    | 0.64091    | 0.64091    |   0.0 |  0.37
Comm    | 0.078174   | 0.078174   | 0.078174   |   0.0 |  0.04
Output  | 0.0013455  | 0.0013455  | 0.0013455  |   0.0 |  0.00
Modify  | 1.1661     | 1.1661     | 1.1661     |   0.0 |  0.67
Other   |            | 0.2142     |            |       |  0.12

Nlocal:           2700 ave        2700 max        2700 min
Histogram: 1 0 0 0 0 0 0 0 0 0
Nghost:            412 ave         412 max         412 min
Histogram: 1 0 0 0 0 0 0 0 0 0
Neighs:              0 ave           0 max           0 min
Histogram: 1 0 0 0 0 0 0 0 0 0
FullNghs:        69172 ave       69172 max       69172 min
Histogram: 1 0 0 0 0 0 0 0 0 0

Total # of neighbors = 69172
Ave neighs/atom = 25.619259
Neighbor list builds = 206
Dangerous builds = 0
Setting up Verlet run ...
  Unit style    : metal
  Current step  : 0
  Time step     : 0.001
Per MPI rank memory allocation (min/avg/max) = 3.118 | 3.118 | 3.118 Mbytes
   Step          Temp         v_strain     v_stress_GPa      PotEng           Lz           Press     
         0   289.92873      0              0.6554251     -12053.979      65.172        -2051.4426    
      5000   299.51187      0.0025         0.63159157    -12048.443      65.33493      -2406.0091    
     10000   298.57355      0.005          0.66248291    -12051.723      65.49786      -2059.2189    
     15000   304.81044      0.0075         0.72228046    -12050.173      65.66079      -2151.2077    
     20000   301.86206      0.01           0.9410394     -12048.938      65.82372      -3024.31      
     25000   302.0868       0.0125         1.0343365     -12050.348      65.98665      -3619.4829    
     30000   302.97809      0.015          1.1377568     -12050.822      66.14958      -4060.0461    
     35000   297.68902      0.0175         1.1241907     -12052.427      66.31251      -3494.2807    
     40000   304.49903      0.02           1.284543      -12049.058      66.47544      -4778.12      
     45000   292.55477      0.0225         1.2067651     -12050.86       66.63837      -3269.7175    
     50000   311.65039      0.025          1.3692004     -12048.977      66.8013       -4598.5982    
     55000   306.75553      0.0275         1.3824837     -12050.899      66.96423      -4017.3925    
     60000   301.98853      0.03           1.4375167     -12048.226      67.12716      -4767.2675    
     65000   298.60487      0.0325         1.5715058     -12045.293      67.29009      -5489.6955    
     70000   298.90944      0.035          1.5803048     -12044.014      67.45302      -4622.5069    
     75000   301.4474       0.0375         1.8598036     -12043.696      67.61595      -6321.9093    
     80000   293.99691      0.04           1.8603191     -12040.589      67.77888      -6635.0774    
     85000   297.55201      0.0425         1.8699239     -12044.23       67.94181      -6049.6559    
     90000   295.66065      0.045          1.9739684     -12041.364      68.10474      -6464.7146    
     95000   296.43806      0.0475         2.0290134     -12035.691      68.26767      -6129.7189    
    100000   304.79898      0.05           2.2276158     -12037.964      68.4306       -7693.6384    
    105000   300.32658      0.0525         2.3085456     -12033.417      68.59353      -7512.7374    
    110000   297.39389      0.055          2.3212681     -12033.481      68.75646      -7778.782     
    115000   309.00814      0.0575         2.406242      -12028.456      68.91939      -8083.2234    
    120000   299.8994       0.06           2.5557772     -12026.698      69.08232      -8724.3778    
    125000   300.61247      0.0625         2.5675033     -12025.814      69.24525      -8399.6471    
    130000   300.57131      0.065          2.5678731     -12029.152      69.40818      -7704.7139    
    135000   302.58851      0.0675         2.7030449     -12025.998      69.57111      -9091.7004    
    140000   293.58768      0.07           2.8606314     -12019.278      69.73404      -9948.2895    
    145000   294.90428      0.0725         2.9516162     -12016.948      69.89697      -10405.745    
    150000   305.23335      0.075          2.8492211     -12018.591      70.0599       -9046.6296    
    155000   302.92818      0.0775         3.0152278     -12013.117      70.22283      -10250.858    
    160000   296.64691      0.08           2.9879921     -12009.813      70.38576      -10023.966    
    165000   304.48813      0.0825         3.1001429     -12009.285      70.54869      -10281.953    
    170000   299.73798      0.085          3.1806022     -12006.303      70.71162      -10304.184    
    175000   300.28915      0.0875         3.254891      -11999.498      70.87455      -10880.305    
    180000   300.97854      0.09           3.4057025     -12001.946      71.03748      -11387.819    
    185000   295.4684       0.0925         3.5476911     -11998.192      71.20041      -11951.304    
    190000   297.26408      0.095          3.599339      -11993.873      71.36334      -12455.755    
    195000   296.14396      0.0975         3.6490461     -11990.456      71.52627      -11915.759    
    200000   303.52053      0.1            3.6866621     -11985.604      71.6892       -12847.529    
    205000   307.51151      0.1025         3.661629      -11984.468      71.85213      -12551.888    
    210000   310.04343      0.105          3.760604      -11981.747      72.01506      -12087.725    
    215000   295.70658      0.1075         3.8819913     -11979.555      72.17799      -13222.127    
    220000   297.81748      0.11           3.9043722     -11978.695      72.34092      -13569.092    
    225000   302.06549      0.1125         4.1041191     -11975.248      72.50385      -13689.843    
    230000   295.57535      0.115          3.9139454     -11973.673      72.66678      -13669.016    
    235000   298.88958      0.1175         4.041294      -11975.334      72.82971      -14046.107    
    240000   304.6899       0.12           4.3177412     -11967.901      72.99264      -14772.516    
    245000   298.63756      0.1225         4.2912737     -11964.356      73.15557      -15142.496    
    250000   302.33659      0.125          4.2658355     -11964.309      73.3185       -14019.699    
    255000   305.38333      0.1275         4.057073      -11962.981      73.48143      -13774.694    
    260000   296.84151      0.13           4.2756867     -11959.319      73.64436      -15009.644    
    265000   304.23273      0.1325         4.2796853     -11962.158      73.80729      -14529.06     
    270000   299.91733      0.135          4.3490548     -11960.967      73.97022      -13845.835    
    275000   304.14006      0.1375         4.3080532     -11955.498      74.13315      -14422.323    
    280000   296.50285      0.14           4.5822864     -11956.543      74.29608      -15871        
    285000   296.28284      0.1425         4.5165305     -11955.82       74.45901      -15704.641    
    290000   298.22473      0.145          4.4382202     -11952.057      74.62194      -14765.198    
    295000   303.1247       0.1475         4.6025252     -11950.645      74.78487      -15181.403    
    300000   299.01405      0.15           4.7143089     -11944.604      74.9478       -15666.147    
    305000   302.66258      0.1525         4.6889891     -11942.367      75.11073      -14922.376    
    310000   305.989        0.155          4.8348445     -11938.692      75.27366      -15813.123    
    315000   305.31751      0.1575         5.0946956     -11934.775      75.43659      -17741.926    
    320000   291.71814      0.16           5.0249132     -11931.352      75.59952      -16704        
    325000   302.28853      0.1625         5.1812378     -11926.802      75.76245      -17393.791    
    330000   303.99806      0.165          5.2569668     -11920.415      75.92538      -18388.346    
    335000   301.27634      0.1675         5.3133595     -11916.48       76.08831      -17205.778    
    340000   299.7607       0.17           5.5381966     -11910.354      76.25124      -18810.516    
    345000   300.13885      0.1725         5.4625776     -11909.408      76.41417      -17955.221    
    350000   301.42617      0.175          5.225544      -11907.697      76.5771       -17421.115    
    355000   306.63071      0.1775         5.6151763     -11902.814      76.74003      -19555.096    
    360000   298.99181      0.18           5.535925      -11903.169      76.90296      -18304.585    
    365000   299.16164      0.1825         5.5137202     -11899.291      77.06589      -18483.86     
    370000   297.23959      0.185          5.360217      -11899.718      77.22882      -18296.342    
    375000   303.43636      0.1875         5.5848677     -11892.115      77.39175      -18178.083    
    380000   292.3883       0.19           5.610756      -11892.734      77.55468      -18807.165    
    385000   310.61072      0.1925         5.71558       -11885.619      77.71761      -19158.594    
    390000   304.08444      0.195          5.5771752     -11880.8        77.88054      -18571.476    
    395000   306.93561      0.1975         5.7216684     -11878.006      78.04347      -19107.279    
    400000   304.73796      0.2            5.5534828     -11873.727      78.2064       -18938.395    
Loop time of 2498.76 on 1 procs for 400000 steps with 2700 atoms

Performance: 13.831 ns/day, 1.735 hours/ns, 160.079 timesteps/s, 432.214 katom-step/s
100.0% CPU use with 1 MPI tasks x 1 OpenMP threads

MPI task timing breakdown:
Section |  min time  |  avg time  |  max time  |%varavg| %total
---------------------------------------------------------------
Pair    | 2452.3     | 2452.3     | 2452.3     |   0.0 | 98.14
Neigh   | 7.5769     | 7.5769     | 7.5769     |   0.0 |  0.30
Comm    | 0.98871    | 0.98871    | 0.98871    |   0.0 |  0.04
Output  | 0.0023587  | 0.0023587  | 0.0023587  |   0.0 |  0.00
Modify  | 35.043     | 35.043     | 35.043     |   0.0 |  1.40
Other   |            | 2.886      |            |       |  0.12

Nlocal:           2700 ave        2700 max        2700 min
Histogram: 1 0 0 0 0 0 0 0 0 0
Nghost:            358 ave         358 max         358 min
Histogram: 1 0 0 0 0 0 0 0 0 0
Neighs:              0 ave           0 max           0 min
Histogram: 1 0 0 0 0 0 0 0 0 0
FullNghs:        68688 ave       68688 max       68688 min
Histogram: 1 0 0 0 0 0 0 0 0 0

Total # of neighbors = 68688
Ave neighs/atom = 25.44
Neighbor list builds = 2261
Dangerous builds = 0
DONE RAD=3 RATE=0.0005 atoms=2700 finalstrain=0.2000000000000000111
Total wall time: 0:44:32
