LAMMPS (7 Feb 2024 - Update 1)
OMP_NUM_THREADS environment is not set. Defaulting to 1 thread. (src/comm.cpp:98)
  using 1 OpenMP thread(s) per MPI task
Lattice spacing in x,y,z = 5.431 5.431 5.431
Created orthogonal box = (-81.465 -81.465 0) to (81.465 81.465 65.172)
  1 by 1 by 1 MPI processor grid
Created 14748 atoms
  using lattice units in orthogonal box = (-81.481293 -81.481293 0) to (81.481293 81.481293 65.172)
  create_atoms CPU = 0.004 seconds
Reading tersoff potential file Si.tersoff with DATE: 2007-10-25
Neighbor list info ...
  update: every = 1 steps, delay = 0 steps, check = yes
  max neighbors/atom: 2000, page size: 100000
  master list distance cutoff = 5.2
  ghost atom cutoff = 5.2
  binsize = 2.6, bins = 63 63 26
  1 neighbor lists, perpetual/occasional/extra = 1 0 0
  (1) pair tersoff, perpetual
      attributes: full, newton on
      pair build: full/bin/atomonly
      stencil: full/bin/3d
      bin: standard
Setting up cg style minimization ...
  Unit style    : metal
  Current step  : 0
Per MPI rank memory allocation (min/avg/max) = 9.114 | 9.114 | 9.114 Mbytes
   Step          Temp          E_pair         E_mol          TotEng         Press          Volume    
         0   0             -66648.639      0             -66648.639     -2229.6919      377093.37    
        26   0             -66658.459      0             -66658.459     -132.44183      377093.37    
Loop time of 1.42384 on 1 procs for 26 steps with 14748 atoms

100.0% CPU use with 1 MPI tasks x 1 OpenMP threads

Minimization stats:
  Stopping criterion = energy tolerance
  Energy initial, next-to-last, final = 
     -66648.6385080089  -66658.4587175514  -66658.4593717473
  Force two-norm initial, final = 14.966484 0.098294504
  Force max component initial, final = 0.4601903 0.0025251828
  Final line search alpha, max atom move = 1 0.0025251828
  Iterations, force evaluations = 26 52

MPI task timing breakdown:
Section |  min time  |  avg time  |  max time  |%varavg| %total
---------------------------------------------------------------
Pair    | 1.4095     | 1.4095     | 1.4095     |   0.0 | 98.99
Neigh   | 0          | 0          | 0          |   0.0 |  0.00
Comm    | 0.0007451  | 0.0007451  | 0.0007451  |   0.0 |  0.05
Output  | 0          | 0          | 0          |   0.0 |  0.00
Modify  | 0          | 0          | 0          |   0.0 |  0.00
Other   |            | 0.0136     |            |       |  0.96

Nlocal:          14748 ave       14748 max       14748 min
Histogram: 1 0 0 0 0 0 0 0 0 0
Nghost:           2153 ave        2153 max        2153 min
Histogram: 1 0 0 0 0 0 0 0 0 0
Neighs:              0 ave           0 max           0 min
Histogram: 1 0 0 0 0 0 0 0 0 0
FullNghs:       391440 ave      391440 max      391440 min
Histogram: 1 0 0 0 0 0 0 0 0 0

Total # of neighbors = 391440
Ave neighs/atom = 26.541904
Neighbor list builds = 0
Dangerous builds = 0
Setting up Verlet run ...
  Unit style    : metal
  Current step  : 0
  Time step     : 0.001
Per MPI rank memory allocation (min/avg/max) = 6.866 | 6.866 | 6.866 Mbytes
   Step          Temp          PotEng         Press           Pzz             Lz      
         0   300           -66658.459      1495.7482      1388.2331      65.172       
      1000   300.50162     -66538.5        714.31626     -458.01126      65.172       
      2000   301.56514     -66736.103     -876.74568     -1770.785       65.172       
      3000   300.46586     -66798.889     -1318.886      -2512.3702      65.172       
      4000   300.53216     -66824.241      544.50194     -1119.9328      65.172       
      5000   298.43752     -66831.425     -1335.6973     -2686.4983      65.172       
      6000   301.7324      -66841.69      -1495.1971     -3036.1054      65.172       
      7000   301.7253      -66836.642      457.24502     -1101.0447      65.172       
      8000   298.13133     -66847.593     -976.62009     -2348.2882      65.172       
      9000   302.04962     -66845.155     -1549.8023     -2972.6615      65.172       
     10000   299.14144     -66850.665      342.45249     -1442.2284      65.172       
     11000   302.51053     -66843.952     -1348.3433     -2859.375       65.172       
     12000   300.59046     -66856.529     -1209.1799     -2803.3216      65.172       
     13000   303.17286     -66855.847      366.82226     -1372.8916      65.172       
     14000   296.7729      -66856.136     -1492.4433     -3011.9716      65.172       
     15000   304.47872     -66858.23      -722.43933     -2177.6732      65.172       
     16000   301.27647     -66860.466      114.74834     -1465.1574      65.172       
     17000   300.63078     -66868.445     -1524.1055     -2954.4527      65.172       
     18000   297.99245     -66860.896     -1036.3886     -2492.5632      65.172       
     19000   296.53901     -66860.938      436.07655     -1218.956       65.172       
     20000   299.99        -66864.66      -1400.4939     -2808.7188      65.172       
     21000   301.3466      -66860.013     -1165.771      -2855.3913      65.172       
     22000   304.41494     -66866.587      235.31286     -1507.1979      65.172       
     23000   298.15505     -66861.092     -1485.3239     -2941.3046      65.172       
     24000   301.03806     -66866.023     -1004.2858     -2568.1931      65.172       
     25000   301.17069     -66870.066      235.42447     -1406.1244      65.172       
     26000   297.64656     -66859.876     -1635.0382     -3040.7405      65.172       
     27000   300.19969     -66863.819     -1053.7589     -2861.8169      65.172       
     28000   297.68958     -66871.305      206.34477     -1406.2318      65.172       
     29000   297.84006     -66864.071     -1758.0168     -3322.0257      65.172       
     30000   299.08455     -66866.768     -706.42272     -2204.2568      65.172       
Loop time of 903.821 on 1 procs for 30000 steps with 14748 atoms

Performance: 2.868 ns/day, 8.369 hours/ns, 33.192 timesteps/s, 489.522 katom-step/s
100.0% CPU use with 1 MPI tasks x 1 OpenMP threads

MPI task timing breakdown:
Section |  min time  |  avg time  |  max time  |%varavg| %total
---------------------------------------------------------------
Pair    | 891.04     | 891.04     | 891.04     |   0.0 | 98.59
Neigh   | 3.6429     | 3.6429     | 3.6429     |   0.0 |  0.40
Comm    | 0.45577    | 0.45577    | 0.45577    |   0.0 |  0.05
Output  | 0.0037146  | 0.0037146  | 0.0037146  |   0.0 |  0.00
Modify  | 7.0699     | 7.0699     | 7.0699     |   0.0 |  0.78
Other   |            | 1.607      |            |       |  0.18

Nlocal:          14748 ave       14748 max       14748 min
Histogram: 1 0 0 0 0 0 0 0 0 0
Nghost:           2198 ave        2198 max        2198 min
Histogram: 1 0 0 0 0 0 0 0 0 0
Neighs:              0 ave           0 max           0 min
Histogram: 1 0 0 0 0 0 0 0 0 0
FullNghs:       400654 ave      400654 max      400654 min
Histogram: 1 0 0 0 0 0 0 0 0 0

Total # of neighbors = 400654
Ave neighs/atom = 27.166667
Neighbor list builds = 237
Dangerous builds = 0
Setting up Verlet run ...
  Unit style    : metal
  Current step  : 0
  Time step     : 0.001
Per MPI rank memory allocation (min/avg/max) = 7.248 | 7.248 | 7.248 Mbytes
   Step          Temp         v_strain     v_stress_GPa      PotEng           Lz           Press     
         0   299.08455      0              0.21999948    -66866.768      65.172        -705.05685    
      5000   301.37271      0.025          1.2706399     -66821.288      66.8013       -4910.8691    
     10000   299.70347      0.05           2.0850599     -66739.184      68.4306       -6520.297     
     15000   302.89465      0.075          3.071747      -66577.956      70.0599       -9645.6192    
     20000   301.83908      0.1            4.2506347     -66395.642      71.6892       -14160.363    
     25000   302.30279      0.125          5.4013961     -66145.855      73.3185       -18347.223    
     30000   301.19448      0.15           6.4805775     -65862.02       74.9478       -21840.722    
     35000   298.13552      0.175          7.5131375     -65535.382      76.5771       -25499.824    
     40000   303.54306      0.2            8.5259998     -65170.608      78.2064       -28542.714    
Loop time of 1251.26 on 1 procs for 40000 steps with 14748 atoms

Performance: 2.762 ns/day, 8.689 hours/ns, 31.968 timesteps/s, 471.459 katom-step/s
100.0% CPU use with 1 MPI tasks x 1 OpenMP threads

MPI task timing breakdown:
Section |  min time  |  avg time  |  max time  |%varavg| %total
---------------------------------------------------------------
Pair    | 1225.8     | 1225.8     | 1225.8     |   0.0 | 97.96
Neigh   | 5.289      | 5.289      | 5.289      |   0.0 |  0.42
Comm    | 0.49519    | 0.49519    | 0.49519    |   0.0 |  0.04
Output  | 0.00054262 | 0.00054262 | 0.00054262 |   0.0 |  0.00
Modify  | 17.624     | 17.624     | 17.624     |   0.0 |  1.41
Other   |            | 2.102      |            |       |  0.17

Nlocal:          14748 ave       14748 max       14748 min
Histogram: 1 0 0 0 0 0 0 0 0 0
Nghost:           2083 ave        2083 max        2083 min
Histogram: 1 0 0 0 0 0 0 0 0 0
Neighs:              0 ave           0 max           0 min
Histogram: 1 0 0 0 0 0 0 0 0 0
FullNghs:       410866 ave      410866 max      410866 min
Histogram: 1 0 0 0 0 0 0 0 0 0

Total # of neighbors = 410866
Ave neighs/atom = 27.8591
Neighbor list builds = 311
Dangerous builds = 0
DONE RAD=7 RATE=0.005 atoms=14748 finalstrain=0.2000000000000000111
Total wall time: 0:35:56
