LAMMPS (7 Feb 2024 - Update 1)
OMP_NUM_THREADS environment is not set. Defaulting to 1 thread. (src/comm.cpp:98)
  using 1 OpenMP thread(s) per MPI task
Lattice spacing in x,y,z = 5.431 5.431 5.431
Created orthogonal box = (-81.465 -81.465 0) to (81.465 81.465 65.172)
  1 by 1 by 1 MPI processor grid
Created 7596 atoms
  using lattice units in orthogonal box = (-81.481293 -81.481293 0) to (81.481293 81.481293 65.172)
  create_atoms CPU = 0.003 seconds
Reading tersoff potential file Si.tersoff with DATE: 2007-10-25
Neighbor list info ...
  update: every = 1 steps, delay = 0 steps, check = yes
  max neighbors/atom: 2000, page size: 100000
  master list distance cutoff = 5.2
  ghost atom cutoff = 5.2
  binsize = 2.6, bins = 63 63 26
  1 neighbor lists, perpetual/occasional/extra = 1 0 0
  (1) pair tersoff, perpetual
      attributes: full, newton on
      pair build: full/bin/atomonly
      stencil: full/bin/3d
      bin: standard
Setting up cg style minimization ...
  Unit style    : metal
  Current step  : 0
Per MPI rank memory allocation (min/avg/max) = 5.146 | 5.146 | 5.146 Mbytes
   Step          Temp          E_pair         E_mol          TotEng         Press          Volume    
         0   0             -33928.969      0             -33928.969     -3087.6223      192460.52    
        30   0             -33935.745      0             -33935.745     -100.89585      192460.52    
Loop time of 0.96106 on 1 procs for 30 steps with 7596 atoms

97.0% CPU use with 1 MPI tasks x 1 OpenMP threads

Minimization stats:
  Stopping criterion = energy tolerance
  Energy initial, next-to-last, final = 
     -33928.9686753943  -33935.7442903053  -33935.7446203512
  Force two-norm initial, final = 12.697613 0.07047148
  Force max component initial, final = 0.4601903 0.0025199295
  Final line search alpha, max atom move = 1 0.0025199295
  Iterations, force evaluations = 30 60

MPI task timing breakdown:
Section |  min time  |  avg time  |  max time  |%varavg| %total
---------------------------------------------------------------
Pair    | 0.95043    | 0.95043    | 0.95043    |   0.0 | 98.89
Neigh   | 0          | 0          | 0          |   0.0 |  0.00
Comm    | 0.00061376 | 0.00061376 | 0.00061376 |   0.0 |  0.06
Output  | 0          | 0          | 0          |   0.0 |  0.00
Modify  | 0          | 0          | 0          |   0.0 |  0.00
Other   |            | 0.01001    |            |       |  1.04

Nlocal:           7596 ave        7596 max        7596 min
Histogram: 1 0 0 0 0 0 0 0 0 0
Nghost:           1105 ave        1105 max        1105 min
Histogram: 1 0 0 0 0 0 0 0 0 0
Neighs:              0 ave           0 max           0 min
Histogram: 1 0 0 0 0 0 0 0 0 0
FullNghs:       197136 ave      197136 max      197136 min
Histogram: 1 0 0 0 0 0 0 0 0 0

Total # of neighbors = 197136
Ave neighs/atom = 25.952607
Neighbor list builds = 0
Dangerous builds = 0
Setting up Verlet run ...
  Unit style    : metal
  Current step  : 0
  Time step     : 0.001
Per MPI rank memory allocation (min/avg/max) = 4.021 | 4.021 | 4.021 Mbytes
   Step          Temp          PotEng         Press           Pzz             Lz      
         0   300           -33935.745      1546.3876      1431.0096      65.172       
      1000   315.16527     -34040.157     -1591.2573     -2947.8358      65.172       
      2000   301.62997     -34165.807     -1024.13       -2804.1352      65.172       
      3000   302.65244     -34224.58      -846.66834     -3098.1147      65.172       
      4000   297.45282     -34239.033     -663.24298     -2815.6048      65.172       
      5000   302.17345     -34249.128     -546.86108     -2927.3986      65.172       
      6000   299.04305     -34253.45      -34.341641     -2256.6734      65.172       
      7000   299.43648     -34258.082     -390.20301     -2574.2583      65.172       
      8000   301.02043     -34261.542     -882.16473     -3150.5009      65.172       
      9000   304.18359     -34260.184     -1060.8464     -3459.0653      65.172       
     10000   303.49841     -34268.268     -1690.4078     -4060.4802      65.172       
     11000   302.0764      -34262.069     -1477.5473     -3790.4006      65.172       
     12000   294.40821     -34264.139     -1957.506      -4105.6103      65.172       
     13000   303.9089      -34268.489     -1482.3476     -3983.8779      65.172       
     14000   300.48939     -34271.381     -1942.1917     -4775.035       65.172       
     15000   307.32814     -34269.031     -1481.096      -4113.0042      65.172       
     16000   298.4768      -34270.009     -1319.1776     -3714.1612      65.172       
     17000   298.83549     -34270.287     -1230.1236     -3695.5808      65.172       
     18000   295.33814     -34274.068     -1301.4936     -3958.3899      65.172       
     19000   297.92583     -34268.455     -938.16312     -3694.9536      65.172       
     20000   293.44634     -34274.753     -1211.1006     -3593.2069      65.172       
     21000   298.92285     -34272.845     -858.21022     -3402.6621      65.172       
     22000   296.36377     -34267.052     -1710.5472     -4109.9326      65.172       
     23000   304.6623      -34275.521     -1218.4255     -3844.0388      65.172       
     24000   298.29511     -34275.372     -1073.7879     -3587.7354      65.172       
     25000   303.50482     -34278.025     -1229.4284     -3928.1512      65.172       
     26000   299.15781     -34280.397     -977.52372     -3371.0998      65.172       
     27000   300.15143     -34277.308     -1203.9889     -3533.4479      65.172       
     28000   294.89523     -34280.028     -1384.5648     -3877.1576      65.172       
     29000   304.72275     -34280.633     -650.07525     -3378.6156      65.172       
     30000   303.22206     -34278.808     -1065.6715     -3497.0992      65.172       
Loop time of 492.442 on 1 procs for 30000 steps with 7596 atoms

Performance: 5.264 ns/day, 4.560 hours/ns, 60.921 timesteps/s, 462.755 katom-step/s
96.9% CPU use with 1 MPI tasks x 1 OpenMP threads

MPI task timing breakdown:
Section |  min time  |  avg time  |  max time  |%varavg| %total
---------------------------------------------------------------
Pair    | 485.69     | 485.69     | 485.69     |   0.0 | 98.63
Neigh   | 1.9185     | 1.9185     | 1.9185     |   0.0 |  0.39
Comm    | 0.2741     | 0.2741     | 0.2741     |   0.0 |  0.06
Output  | 0.0024235  | 0.0024235  | 0.0024235  |   0.0 |  0.00
Modify  | 3.7016     | 3.7016     | 3.7016     |   0.0 |  0.75
Other   |            | 0.8508     |            |       |  0.17

Nlocal:           7596 ave        7596 max        7596 min
Histogram: 1 0 0 0 0 0 0 0 0 0
Nghost:           1149 ave        1149 max        1149 min
Histogram: 1 0 0 0 0 0 0 0 0 0
Neighs:              0 ave           0 max           0 min
Histogram: 1 0 0 0 0 0 0 0 0 0
FullNghs:       203176 ave      203176 max      203176 min
Histogram: 1 0 0 0 0 0 0 0 0 0

Total # of neighbors = 203176
Ave neighs/atom = 26.747762
Neighbor list builds = 217
Dangerous builds = 0
Setting up Verlet run ...
  Unit style    : metal
  Current step  : 0
  Time step     : 0.001
Per MPI rank memory allocation (min/avg/max) = 4.028 | 4.028 | 4.028 Mbytes
   Step          Temp         v_strain     v_stress_GPa      PotEng           Lz           Press     
         0   303.22206      0              0.34798145    -34278.808      65.172        -1060.4043    
      5000   299.60109      0.0025         0.4420369     -34270.422      65.33493      -1347.2609    
     10000   304.17763      0.005          0.51761843    -34275.748      65.49786      -1683.831     
     15000   302.06938      0.0075         0.63508417    -34276.727      65.66079      -2162.8693    
     20000   300.66675      0.01           0.75565946    -34276.594      65.82372      -2648.8121    
     25000   298.96111      0.0125         0.82021803    -34277.325      65.98665      -2470.1269    
     30000   303.95152      0.015          0.98159218    -34279.2        66.14958      -3794.5036    
     35000   301.95949      0.0175         0.95689551    -34267.434      66.31251      -2883.1983    
     40000   302.47661      0.02           1.104848      -34274.157      66.47544      -4083.6995    
     45000   299.71628      0.0225         1.0945338     -34271.622      66.63837      -3233.5054    
     50000   300.20063      0.025          1.2877428     -34272.073      66.8013       -4622.7719    
     55000   302.83384      0.0275         1.3245895     -34270.809      66.96423      -4179.8511    
     60000   295.82867      0.03           1.4845169     -34266.91       67.12716      -5142.7362    
     65000   294.13655      0.0325         1.4517397     -34271.038      67.29009      -4433.525     
     70000   300.97978      0.035          1.6315299     -34258.974      67.45302      -5676.365     
     75000   296.77877      0.0375         1.7228683     -34257.237      67.61595      -5517.0075    
     80000   303.24881      0.04           1.8124828     -34253.29       67.77888      -6279.4663    
     85000   302.3067       0.0425         1.9428194     -34243.402      67.94181      -6487.4403    
     90000   295.37709      0.045          2.0362012     -34242.156      68.10474      -6900.5477    
     95000   301.8731       0.0475         2.0616599     -34234.294      68.26767      -6416.1874    
    100000   300.92848      0.05           2.1627886     -34230.697      68.4306       -7071.9863    
    105000   301.62722      0.0525         2.3176476     -34229.277      68.59353      -7839.0042    
    110000   298.33695      0.055          2.3876045     -34221.952      68.75646      -7865.0583    
    115000   301.70686      0.0575         2.5060874     -34218.821      68.91939      -8425.7719    
    120000   300.36777      0.06           2.5268881     -34214.263      69.08232      -8188.3874    
    125000   298.09937      0.0625         2.7000585     -34203.338      69.24525      -9020.21      
    130000   306.19913      0.065          2.7591114     -34190.912      69.40818      -8901.1811    
    135000   299.47142      0.0675         2.9084476     -34188.506      69.57111      -10074.872    
    140000   299.75118      0.07           2.9273816     -34175.502      69.73404      -9379.6825    
    145000   297.7244       0.0725         3.0457613     -34180.223      69.89697      -10129.764    
    150000   302.99119      0.075          3.1732951     -34161.821      70.0599       -10795.398    
    155000   303.89468      0.0775         3.2637669     -34157.624      70.22283      -11023.239    
    160000   301.38684      0.08           3.3253223     -34152.885      70.38576      -10912.588    
    165000   297.78982      0.0825         3.3800524     -34144.349      70.54869      -10957.641    
    170000   298.70565      0.085          3.5212172     -34141.162      70.71162      -11955.335    
    175000   303.90347      0.0875         3.5620524     -34132.999      70.87455      -11852.626    
    180000   301.26555      0.09           3.7505271     -34119.995      71.03748      -12933.939    
    185000   302.73174      0.0925         3.7170136     -34108.977      71.20041      -11846.177    
    190000   302.68671      0.095          3.8724886     -34103.782      71.36334      -12740.245    
    195000   300.59763      0.0975         4.0440001     -34088.223      71.52627      -13764.353    
    200000   300.27074      0.1            3.9838759     -34082.36       71.6892       -12895.736    
    205000   303.07748      0.1025         4.132565      -34070.651      71.85213      -13754.099    
    210000   298.01085      0.105          4.3019135     -34058.264      72.01506      -14857.581    
    215000   301.30102      0.1075         4.313215      -34054.072      72.17799      -14133.318    
    220000   302.36241      0.11           4.4569466     -34038.351      72.34092      -14758.269    
    225000   303.97752      0.1125         4.5598095     -34027.063      72.50385      -15327.1      
    230000   301.1069       0.115          4.6082498     -34018.262      72.66678      -15296.564    
    235000   300.65921      0.1175         4.756733      -34005.233      72.82971      -16135.326    
    240000   301.43721      0.12           4.7998378     -33990.574      72.99264      -15492.165    
    245000   300.76379      0.1225         4.9523343     -33979.377      73.15557      -16798.378    
    250000   299.09765      0.125          5.0399675     -33967.949      73.3185       -16833.593    
    255000   296.73138      0.1275         5.1076593     -33953.97       73.48143      -16750.849    
    260000   303.9167       0.13           5.1845781     -33943.661      73.64436      -17180.123    
    265000   303.74237      0.1325         5.2344003     -33936.258      73.80729      -17391.075    
    270000   300.23545      0.135          5.3511223     -33921.832      73.97022      -17862.696    
    275000   300.66196      0.1375         5.5614058     -33902.315      74.13315      -18837.263    
    280000   303.00369      0.14           5.505124      -33898.452      74.29608      -18053.131    
    285000   298.17898      0.1425         5.7018548     -33883.433      74.45901      -19393.227    
    290000   302.94159      0.145          5.7580217     -33868.197      74.62194      -19512.744    
    295000   300.31444      0.1475         5.7188457     -33855.13       74.78487      -18574.544    
    300000   306.13677      0.15           5.8550986     -33836.982      74.9478       -19404.188    
    305000   300.88519      0.1525         5.9829394     -33830.515      75.11073      -20175.575    
    310000   303.75215      0.155          6.1085287     -33809.874      75.27366      -20848.783    
    315000   298.47634      0.1575         6.1171455     -33803.838      75.43659      -20130.644    
    320000   304.30027      0.16           6.162113      -33789.333      75.59952      -20102.737    
    325000   297.16396      0.1625         6.2442666     -33776.322      75.76245      -20538.155    
    330000   302.76804      0.165          6.3444289     -33762.544      75.92538      -21175.398    
    335000   300.81206      0.1675         6.3926541     -33751.527      76.08831      -20911.869    
    340000   296.76432      0.17           6.4950272     -33728.209      76.25124      -21465.797    
    345000   304.45036      0.1725         6.5680966     -33718.67       76.41417      -21575.032    
    350000   298.77334      0.175          6.8228506     -33702.595      76.5771       -23096.399    
    355000   299.2658       0.1775         6.7755422     -33688.618      76.74003      -22973.424    
    360000   302.46701      0.18           6.9392554     -33681.033      76.90296      -23106.647    
    365000   298.67092      0.1825         6.9184147     -33665.151      77.06589      -22947.094    
    370000   297.58546      0.185          6.9001019     -33654.06       77.22882      -22723.511    
    375000   297.12164      0.1875         7.0058818     -33627.784      77.39175      -23239.683    
    380000   300.65043      0.19           7.0714714     -33621.552      77.55468      -23255.604    
    385000   300.39507      0.1925         7.1440358     -33609.834      77.71761      -23655.818    
    390000   304.52531      0.195          7.3283254     -33588.468      77.88054      -24626.804    
    395000   302.20429      0.1975         7.3582633     -33574.825      78.04347      -24428.208    
    400000   296.207        0.2            7.5084684     -33558.547      78.2064       -25341.497    
Loop time of 6965.53 on 1 procs for 400000 steps with 7596 atoms

Performance: 4.962 ns/day, 4.837 hours/ns, 57.426 timesteps/s, 436.205 katom-step/s
96.7% CPU use with 1 MPI tasks x 1 OpenMP threads

MPI task timing breakdown:
Section |  min time  |  avg time  |  max time  |%varavg| %total
---------------------------------------------------------------
Pair    | 6825.5     | 6825.5     | 6825.5     |   0.0 | 97.99
Neigh   | 23.87      | 23.87      | 23.87      |   0.0 |  0.34
Comm    | 3.0366     | 3.0366     | 3.0366     |   0.0 |  0.04
Output  | 0.0037689  | 0.0037689  | 0.0037689  |   0.0 |  0.00
Modify  | 101.86     | 101.86     | 101.86     |   0.0 |  1.46
Other   |            | 11.23      |            |       |  0.16

Nlocal:           7596 ave        7596 max        7596 min
Histogram: 1 0 0 0 0 0 0 0 0 0
Nghost:           1031 ave        1031 max        1031 min
Histogram: 1 0 0 0 0 0 0 0 0 0
Neighs:              0 ave           0 max           0 min
Histogram: 1 0 0 0 0 0 0 0 0 0
FullNghs:       205556 ave      205556 max      205556 min
Histogram: 1 0 0 0 0 0 0 0 0 0

Total # of neighbors = 205556
Ave neighs/atom = 27.061085
Neighbor list builds = 2463
Dangerous builds = 0
DONE RAD=5 RATE=0.0005 atoms=7596 finalstrain=0.2000000000000000111
Total wall time: 2:04:19
