LAMMPS (7 Feb 2024 - Update 1)
OMP_NUM_THREADS environment is not set. Defaulting to 1 thread. (src/comm.cpp:98)
  using 1 OpenMP thread(s) per MPI task
Lattice spacing in x,y,z = 5.431 5.431 5.431
Created orthogonal box = (-81.465 -81.465 0) to (81.465 81.465 65.172)
  1 by 1 by 1 MPI processor grid
Created 30252 atoms
  using lattice units in orthogonal box = (-81.481293 -81.481293 0) to (81.481293 81.481293 65.172)
  create_atoms CPU = 0.007 seconds
Reading tersoff potential file Si.tersoff with DATE: 2007-10-25
Neighbor list info ...
  update: every = 1 steps, delay = 0 steps, check = yes
  max neighbors/atom: 2000, page size: 100000
  master list distance cutoff = 5.2
  ghost atom cutoff = 5.2
  binsize = 2.6, bins = 63 63 26
  1 neighbor lists, perpetual/occasional/extra = 1 0 0
  (1) pair tersoff, perpetual
      attributes: full, newton on
      pair build: full/bin/atomonly
      stencil: full/bin/3d
      bin: standard
Setting up cg style minimization ...
  Unit style    : metal
  Current step  : 0
Per MPI rank memory allocation (min/avg/max) = 15.21 | 15.21 | 15.21 Mbytes
   Step          Temp          E_pair         E_mol          TotEng         Press          Volume    
         0   0             -137654.71      0             -137654.71     -1511.4146      769380.52    
        24   0             -137668.28      0             -137668.28     -90.630177      769380.52    
Loop time of 3.17829 on 1 procs for 24 steps with 30252 atoms

92.2% CPU use with 1 MPI tasks x 1 OpenMP threads

Minimization stats:
  Stopping criterion = energy tolerance
  Energy initial, next-to-last, final = 
     -137654.705097166  -137668.281596338  -137668.282938006
  Force two-norm initial, final = 17.811005 0.13821401
  Force max component initial, final = 0.4601903 0.0025654827
  Final line search alpha, max atom move = 1 0.0025654827
  Iterations, force evaluations = 24 48

MPI task timing breakdown:
Section |  min time  |  avg time  |  max time  |%varavg| %total
---------------------------------------------------------------
Pair    | 3.1429     | 3.1429     | 3.1429     |   0.0 | 98.89
Neigh   | 0          | 0          | 0          |   0.0 |  0.00
Comm    | 0.0016963  | 0.0016963  | 0.0016963  |   0.0 |  0.05
Output  | 0          | 0          | 0          |   0.0 |  0.00
Modify  | 0          | 0          | 0          |   0.0 |  0.00
Other   |            | 0.03374    |            |       |  1.06

Nlocal:          30252 ave       30252 max       30252 min
Histogram: 1 0 0 0 0 0 0 0 0 0
Nghost:           4409 ave        4409 max        4409 min
Histogram: 1 0 0 0 0 0 0 0 0 0
Neighs:              0 ave           0 max           0 min
Histogram: 1 0 0 0 0 0 0 0 0 0
FullNghs:       816144 ave      816144 max      816144 min
Histogram: 1 0 0 0 0 0 0 0 0 0

Total # of neighbors = 816144
Ave neighs/atom = 26.978183
Neighbor list builds = 0
Dangerous builds = 0
Setting up Verlet run ...
  Unit style    : metal
  Current step  : 0
  Time step     : 0.001
Per MPI rank memory allocation (min/avg/max) = 11.84 | 11.84 | 11.84 Mbytes
   Step          Temp          PotEng         Press           Pzz             Lz      
         0   300           -137668.28      1543.7878      1481.2258      65.172       
      1000   304.54613     -137143.49      235.90512     -311.01443      65.172       
      2000   299.90593     -137476.18     -1217.2497     -1913.9733      65.172       
      3000   300.58371     -137580.64     -27.403734     -911.8338       65.172       
      4000   297.81167     -137602.86     -1022.9275     -2091.1339      65.172       
      5000   297.20931     -137629.02     -294.4814      -1470.0939      65.172       
      6000   299.74393     -137624.47     -376.69171     -1638.5911      65.172       
      7000   299.72384     -137653.44     -759.60046     -1863.1632      65.172       
      8000   301.3016      -137645.58     -137.38491     -1409.4373      65.172       
      9000   297.1501      -137653.17     -1467.1536     -2670.4542      65.172       
     10000   300.54514     -137649.1       108.79913     -1165.8159      65.172       
     11000   298.4756      -137655        -1602.8914     -2726.7378      65.172       
     12000   299.91394     -137655.6       223.73811     -1200.5481      65.172       
     13000   298.60477     -137658.82     -1500.7718     -2562.0214      65.172       
     14000   300.7972      -137663.65      327.5583      -1016.7802      65.172       
     15000   301.12399     -137666.49     -1233.7526     -2291.2325      65.172       
     16000   299.7476      -137670.33     -97.868641     -1305.5115      65.172       
     17000   301.74339     -137661.76     -947.78714     -2245.2045      65.172       
     18000   301.22917     -137667.75     -418.79905     -1672.0609      65.172       
     19000   300.09304     -137667.26     -681.42104     -1899.0824      65.172       
     20000   300.34307     -137676.15     -814.87658     -2058.1249      65.172       
     21000   303.5247      -137657.2      -238.00173     -1589.1682      65.172       
     22000   301.12564     -137676.77     -1155.3789     -2310.6229      65.172       
     23000   301.80738     -137667.47      48.229437     -1257.8771      65.172       
     24000   299.89902     -137671.7      -1316.4766     -2545.3258      65.172       
     25000   300.87418     -137669.47      101.13933     -1098.2165      65.172       
     26000   296.71044     -137680.68     -1420.0839     -2620.1745      65.172       
     27000   301.43423     -137672.32      43.627619     -1399.2091      65.172       
     28000   298.53062     -137679.32     -1207.3902     -2330.4364      65.172       
     29000   302.17248     -137673.71      58.727146     -1243.8332      65.172       
     30000   299.43039     -137678.65     -1189.3179     -2334.1201      65.172       
Loop time of 2034.9 on 1 procs for 30000 steps with 30252 atoms

Performance: 1.274 ns/day, 18.842 hours/ns, 14.743 timesteps/s, 445.998 katom-step/s
92.3% CPU use with 1 MPI tasks x 1 OpenMP threads

MPI task timing breakdown:
Section |  min time  |  avg time  |  max time  |%varavg| %total
---------------------------------------------------------------
Pair    | 2003.5     | 2003.5     | 2003.5     |   0.0 | 98.46
Neigh   | 8.4434     | 8.4434     | 8.4434     |   0.0 |  0.41
Comm    | 1.109      | 1.109      | 1.109      |   0.0 |  0.05
Output  | 0.0076866  | 0.0076866  | 0.0076866  |   0.0 |  0.00
Modify  | 16.594     | 16.594     | 16.594     |   0.0 |  0.82
Other   |            | 5.211      |            |       |  0.26

Nlocal:          30252 ave       30252 max       30252 min
Histogram: 1 0 0 0 0 0 0 0 0 0
Nghost:           4497 ave        4497 max        4497 min
Histogram: 1 0 0 0 0 0 0 0 0 0
Neighs:              0 ave           0 max           0 min
Histogram: 1 0 0 0 0 0 0 0 0 0
FullNghs:       833220 ave      833220 max      833220 min
Histogram: 1 0 0 0 0 0 0 0 0 0

Total # of neighbors = 833220
Ave neighs/atom = 27.542642
Neighbor list builds = 248
Dangerous builds = 0
Setting up Verlet run ...
  Unit style    : metal
  Current step  : 0
  Time step     : 0.001
Per MPI rank memory allocation (min/avg/max) = 11.86 | 11.86 | 11.86 Mbytes
   Step          Temp         v_strain     v_stress_GPa      PotEng           Lz           Press     
         0   299.43039      0              0.23392047    -137678.65      65.172        -1191.9086    
      5000   299.16085      0.0025         0.31853081    -137671         65.33493      -1439.6133    
     10000   301.02294      0.005          0.31867211    -137672.56      65.49786      -654.62787    
     15000   298.64419      0.0075         0.47656958    -137681.39      65.66079      -1659.806     
     20000   296.6105       0.01           0.60915382    -137654.17      65.82372      -2367.4752    
     25000   299.83311      0.0125         0.6094195     -137666.69      65.98665      -1708.3487    
     30000   302.96662      0.015          0.72222478    -137648.56      66.14958      -2253.2148    
     35000   299.68325      0.0175         0.89848849    -137646.8       66.31251      -3545.6116    
     40000   298.00086      0.02           0.90120594    -137627.92      66.47544      -2784.1233    
     45000   297.548        0.0225         1.0090137     -137625.57      66.63837      -3132.575     
     50000   301.27013      0.025          1.1682457     -137621.47      66.8013       -4241.4293    
     55000   301.32844      0.0275         1.215158      -137589.75      66.96423      -4049.9247    
     60000   299.13797      0.03           1.3036443     -137584.46      67.12716      -4074.4769    
     65000   300.70555      0.0325         1.4423242     -137573.45      67.29009      -4917.3546    
     70000   299.2497       0.035          1.5546801     -137553.24      67.45302      -5435.1678    
     75000   297.95125      0.0375         1.5949146     -137539.71      67.61595      -5093.1564    
     80000   300.91443      0.04           1.7062671     -137519.47      67.77888      -5530.7111    
     85000   302.5584       0.0425         1.8451373     -137492.62      67.94181      -6395.7553    
     90000   298.6414       0.045          1.9354071     -137480.53      68.10474      -6703.7503    
     95000   295.97116      0.0475         1.9701919     -137451.64      68.26767      -6342.2957    
    100000   300.24058      0.05           2.1285709     -137424.99      68.4306       -7045.5643    
    105000   299.00242      0.0525         2.295728      -137410.27      68.59353      -8030.6146    
    110000   301.12741      0.055          2.3448138     -137374.02      68.75646      -7901.3172    
    115000   299.37711      0.0575         2.3907058     -137356.93      68.91939      -7533.081     
    120000   298.8212       0.06           2.5664798     -137325.98      69.08232      -8565.3166    
    125000   299.76415      0.0625         2.7021207     -137301.27      69.24525      -9272.6804    
    130000   299.105        0.065          2.767148      -137271.22      69.40818      -9256.0021    
    135000   298.73067      0.0675         2.8352704     -137237.49      69.57111      -9156.4076    
    140000   298.58741      0.07           2.9968621     -137197.45      69.73404      -10009.066    
    145000   303.66242      0.0725         3.1257248     -137171.38      69.89697      -10799.39     
    150000   298.06712      0.075          3.1841399     -137128.14      70.0599       -10554.323    
    155000   299.8508       0.0775         3.2856011     -137110.41      70.22283      -10768.021    
    160000   298.86308      0.08           3.4058025     -137062.04      70.38576      -11389.553    
    165000   298.12311      0.0825         3.5467334     -137018.89      70.54869      -12041.812    
    170000   299.79301      0.085          3.6597159     -136990.56      70.71162      -12346.352    
    175000   300.76213      0.0875         3.6751575     -136947.48      70.87455      -11898.474    
    180000   298.21926      0.09           3.8392502     -136916.96      71.03748      -12717.559    
    185000   300.58049      0.0925         3.984694      -136868.38      71.20041      -13419.952    
    190000   300.35285      0.095          4.0895294     -136833.65      71.36334      -13889.168    
    195000   301.58302      0.0975         4.1837381     -136782.77      71.52627      -13970.357    
    200000   300.14629      0.1            4.287065      -136735.93      71.6892       -14234.394    
    205000   298.69448      0.1025         4.3881577     -136682.87      71.85213      -14660.879    
    210000   298.38833      0.105          4.496948      -136646.99      72.01506      -14956.833    
    215000   299.75743      0.1075         4.6344366     -136583.06      72.17799      -15561.301    
    220000   297.42396      0.11           4.735976      -136540.23      72.34092      -15886.533    
    225000   301.1585       0.1125         4.8300653     -136490.9       72.50385      -15986.598    
    230000   299.31149      0.115          4.9316477     -136447.5       72.66678      -16410.484    
    235000   298.84281      0.1175         5.0989034     -136388.99      72.82971      -16947.428    
    240000   301.0919       0.12           5.2081327     -136329.62      72.99264      -17313.605    
    245000   298.2685       0.1225         5.309926      -136276.25      73.15557      -17570.77     
    250000   298.81178      0.125          5.4289055     -136220.1       73.3185       -18081        
    255000   300.6236       0.1275         5.5514698     -136158.39      73.48143      -18713.393    
    260000   300.60693      0.13           5.6563818     -136104.71      73.64436      -19041.695    
    265000   298.08935      0.1325         5.7284537     -136049.62      73.80729      -18976.293    
    270000   300.48763      0.135          5.849509      -135982.41      73.97022      -19444.307    
    275000   297.92649      0.1375         5.9444311     -135918.14      74.13315      -19808.017    
    280000   300.8436       0.14           6.1001161     -135857.77      74.29608      -20457.098    
    285000   300.29297      0.1425         6.2201109     -135796.32      74.45901      -20917.965    
    290000   301.70594      0.145          6.2988257     -135741.89      74.62194      -21093.475    
    295000   300.84921      0.1475         6.3919        -135677.19      74.78487      -21197.751    
    300000   299.41618      0.15           6.5098131     -135602.52      74.9478       -21531.071    
    305000   298.59653      0.1525         6.6406679     -135546.7       75.11073      -22015.418    
    310000   299.1738       0.155          6.7679399     -135473.94      75.27366      -22568.27     
    315000   298.56189      0.1575         6.8735522     -135411.09      75.43659      -23015.787    
    320000   299.25639      0.16           6.9884777     -135329.32      75.59952      -23420.915    
    325000   299.47981      0.1625         7.1544546     -135265.94      75.76245      -24007.187    
    330000   296.89354      0.165          7.2102898     -135191.02      75.92538      -24004.154    
    335000   299.54696      0.1675         7.2303248     -135114.24      76.08831      -23869.478    
    340000   300.87246      0.17           7.4114169     -135044.35      76.25124      -24441.232    
    345000   297.0791       0.1725         7.4679356     -134979.65      76.41417      -24792.193    
    350000   298.03993      0.175          7.6328122     -134907.18      76.5771       -25481.273    
    355000   301.54153      0.1775         7.7206186     -134844.06      76.74003      -25883.578    
    360000   299.79505      0.18           7.836378      -134765.03      76.90296      -26259.477    
    365000   300.43597      0.1825         7.9200191     -134685.11      77.06589      -26420.288    
    370000   300.20066      0.185          7.9871814     -134613.01      77.22882      -26501.969    
    375000   299.13874      0.1875         8.1119764     -134541.42      77.39175      -26953.903    
    380000   299.7115       0.19           8.1835249     -134454.85      77.55468      -27252.432    
    385000   303.15436      0.1925         8.3223995     -134381.46      77.71761      -27782.995    
    390000   300.01402      0.195          8.4002393     -134307.37      77.88054      -28040.838    
    395000   301.00002      0.1975         8.5230862     -134229.68      78.04347      -28479.406    
    400000   297.35934      0.2            8.5719547     -134155.5       78.2064       -28431.233    
Loop time of 30762.7 on 1 procs for 400000 steps with 30252 atoms

Performance: 1.123 ns/day, 21.363 hours/ns, 13.003 timesteps/s, 393.360 katom-step/s
96.0% CPU use with 1 MPI tasks x 1 OpenMP threads

MPI task timing breakdown:
Section |  min time  |  avg time  |  max time  |%varavg| %total
---------------------------------------------------------------
Pair    | 30119      | 30119      | 30119      |   0.0 | 97.91
Neigh   | 120.45     | 120.45     | 120.45     |   0.0 |  0.39
Comm    | 13.595     | 13.595     | 13.595     |   0.0 |  0.04
Output  | 0.073968   | 0.073968   | 0.073968   |   0.0 |  0.00
Modify  | 434.72     | 434.72     | 434.72     |   0.0 |  1.41
Other   |            | 75.07      |            |       |  0.24

Nlocal:          30252 ave       30252 max       30252 min
Histogram: 1 0 0 0 0 0 0 0 0 0
Nghost:           4253 ave        4253 max        4253 min
Histogram: 1 0 0 0 0 0 0 0 0 0
Neighs:              0 ave           0 max           0 min
Histogram: 1 0 0 0 0 0 0 0 0 0
FullNghs:       858668 ave      858668 max      858668 min
Histogram: 1 0 0 0 0 0 0 0 0 0

Total # of neighbors = 858668
Ave neighs/atom = 28.383842
Neighbor list builds = 2930
Dangerous builds = 0
DONE RAD=10 RATE=0.0005 atoms=30252 finalstrain=0.2000000000000000111
Total wall time: 9:06:41
