LAMMPS (7 Feb 2024 - Update 1)
OMP_NUM_THREADS environment is not set. Defaulting to 1 thread. (src/comm.cpp:98)
  using 1 OpenMP thread(s) per MPI task
Lattice spacing in x,y,z = 5.431 5.431 5.431
Created orthogonal box = (-81.465 -81.465 0) to (81.465 81.465 65.172)
  1 by 1 by 1 MPI processor grid
Created 30252 atoms
  using lattice units in orthogonal box = (-81.481293 -81.481293 0) to (81.481293 81.481293 65.172)
  create_atoms CPU = 0.006 seconds
Reading tersoff potential file Si.tersoff with DATE: 2007-10-25
Neighbor list info ...
  update: every = 1 steps, delay = 0 steps, check = yes
  max neighbors/atom: 2000, page size: 100000
  master list distance cutoff = 5.2
  ghost atom cutoff = 5.2
  binsize = 2.6, bins = 63 63 26
  1 neighbor lists, perpetual/occasional/extra = 1 0 0
  (1) pair tersoff, perpetual
      attributes: full, newton on
      pair build: full/bin/atomonly
      stencil: full/bin/3d
      bin: standard
Setting up cg style minimization ...
  Unit style    : metal
  Current step  : 0
Per MPI rank memory allocation (min/avg/max) = 15.21 | 15.21 | 15.21 Mbytes
   Step          Temp          E_pair         E_mol          TotEng         Press          Volume    
         0   0             -137654.71      0             -137654.71     -1511.4146      769380.52    
        24   0             -137668.28      0             -137668.28     -90.630177      769380.52    
Loop time of 2.77521 on 1 procs for 24 steps with 30252 atoms

100.0% CPU use with 1 MPI tasks x 1 OpenMP threads

Minimization stats:
  Stopping criterion = energy tolerance
  Energy initial, next-to-last, final = 
     -137654.705097166  -137668.281596338  -137668.282938006
  Force two-norm initial, final = 17.811005 0.13821401
  Force max component initial, final = 0.4601903 0.0025654827
  Final line search alpha, max atom move = 1 0.0025654827
  Iterations, force evaluations = 24 48

MPI task timing breakdown:
Section |  min time  |  avg time  |  max time  |%varavg| %total
---------------------------------------------------------------
Pair    | 2.7422     | 2.7422     | 2.7422     |   0.0 | 98.81
Neigh   | 0          | 0          | 0          |   0.0 |  0.00
Comm    | 0.0014995  | 0.0014995  | 0.0014995  |   0.0 |  0.05
Output  | 0          | 0          | 0          |   0.0 |  0.00
Modify  | 0          | 0          | 0          |   0.0 |  0.00
Other   |            | 0.0315     |            |       |  1.14

Nlocal:          30252 ave       30252 max       30252 min
Histogram: 1 0 0 0 0 0 0 0 0 0
Nghost:           4409 ave        4409 max        4409 min
Histogram: 1 0 0 0 0 0 0 0 0 0
Neighs:              0 ave           0 max           0 min
Histogram: 1 0 0 0 0 0 0 0 0 0
FullNghs:       816144 ave      816144 max      816144 min
Histogram: 1 0 0 0 0 0 0 0 0 0

Total # of neighbors = 816144
Ave neighs/atom = 26.978183
Neighbor list builds = 0
Dangerous builds = 0
Setting up Verlet run ...
  Unit style    : metal
  Current step  : 0
  Time step     : 0.001
Per MPI rank memory allocation (min/avg/max) = 11.84 | 11.84 | 11.84 Mbytes
   Step          Temp          PotEng         Press           Pzz             Lz      
         0   300           -137668.28      1543.7878      1481.2258      65.172       
      1000   304.54613     -137143.49      235.90512     -311.01443      65.172       
      2000   299.90593     -137476.18     -1217.2497     -1913.9733      65.172       
      3000   300.58371     -137580.64     -27.403734     -911.8338       65.172       
      4000   297.81167     -137602.86     -1022.9275     -2091.1339      65.172       
      5000   297.20931     -137629.02     -294.4814      -1470.0939      65.172       
      6000   299.74393     -137624.47     -376.69171     -1638.5911      65.172       
      7000   299.72384     -137653.44     -759.60046     -1863.1632      65.172       
      8000   301.3016      -137645.58     -137.38491     -1409.4373      65.172       
      9000   297.1501      -137653.17     -1467.1536     -2670.4542      65.172       
     10000   300.54514     -137649.1       108.79913     -1165.8159      65.172       
     11000   298.4756      -137655        -1602.8914     -2726.7378      65.172       
     12000   299.91394     -137655.6       223.73811     -1200.5481      65.172       
     13000   298.60477     -137658.82     -1500.7718     -2562.0214      65.172       
     14000   300.7972      -137663.65      327.5583      -1016.7802      65.172       
     15000   301.12399     -137666.49     -1233.7526     -2291.2325      65.172       
     16000   299.7476      -137670.33     -97.868641     -1305.5115      65.172       
     17000   301.74339     -137661.76     -947.78714     -2245.2045      65.172       
     18000   301.22917     -137667.75     -418.79905     -1672.0609      65.172       
     19000   300.09304     -137667.26     -681.42104     -1899.0824      65.172       
     20000   300.34307     -137676.15     -814.87658     -2058.1249      65.172       
     21000   303.5247      -137657.2      -238.00173     -1589.1682      65.172       
     22000   301.12564     -137676.77     -1155.3789     -2310.6229      65.172       
     23000   301.80738     -137667.47      48.229437     -1257.8771      65.172       
     24000   299.89902     -137671.7      -1316.4766     -2545.3258      65.172       
     25000   300.87418     -137669.47      101.13933     -1098.2165      65.172       
     26000   296.71044     -137680.68     -1420.0839     -2620.1745      65.172       
     27000   301.43423     -137672.32      43.627619     -1399.2091      65.172       
     28000   298.53062     -137679.32     -1207.3902     -2330.4364      65.172       
     29000   302.17248     -137673.71      58.727146     -1243.8332      65.172       
     30000   299.43039     -137678.65     -1189.3179     -2334.1201      65.172       
Loop time of 1854.59 on 1 procs for 30000 steps with 30252 atoms

Performance: 1.398 ns/day, 17.172 hours/ns, 16.176 timesteps/s, 489.360 katom-step/s
100.0% CPU use with 1 MPI tasks x 1 OpenMP threads

MPI task timing breakdown:
Section |  min time  |  avg time  |  max time  |%varavg| %total
---------------------------------------------------------------
Pair    | 1825.5     | 1825.5     | 1825.5     |   0.0 | 98.43
Neigh   | 7.7829     | 7.7829     | 7.7829     |   0.0 |  0.42
Comm    | 0.98625    | 0.98625    | 0.98625    |   0.0 |  0.05
Output  | 0.0070776  | 0.0070776  | 0.0070776  |   0.0 |  0.00
Modify  | 15.347     | 15.347     | 15.347     |   0.0 |  0.83
Other   |            | 4.919      |            |       |  0.27

Nlocal:          30252 ave       30252 max       30252 min
Histogram: 1 0 0 0 0 0 0 0 0 0
Nghost:           4497 ave        4497 max        4497 min
Histogram: 1 0 0 0 0 0 0 0 0 0
Neighs:              0 ave           0 max           0 min
Histogram: 1 0 0 0 0 0 0 0 0 0
FullNghs:       833220 ave      833220 max      833220 min
Histogram: 1 0 0 0 0 0 0 0 0 0

Total # of neighbors = 833220
Ave neighs/atom = 27.542642
Neighbor list builds = 248
Dangerous builds = 0
Setting up Verlet run ...
  Unit style    : metal
  Current step  : 0
  Time step     : 0.001
Per MPI rank memory allocation (min/avg/max) = 11.86 | 11.86 | 11.86 Mbytes
   Step          Temp         v_strain     v_stress_GPa      PotEng           Lz           Press     
         0   299.43039      0              0.23392047    -137678.65      65.172        -1191.9086    
      5000   301.10728      0.0005         0.23572453    -137690.5       65.204586     -1021.6335    
     10000   299.03979      0.001          0.18145888    -137685.81      65.237172     -161.72588    
     15000   297.20691      0.0015         0.2652644     -137687.43      65.269758     -1021.6807    
     20000   296.41472      0.002          0.27227207    -137683.34      65.302344     -1196.7619    
     25000   299.54731      0.0025         0.2209777     -137676.82      65.33493      -428.80775    
     30000   300.49223      0.003          0.29005558    -137682.13      65.367516     -892.91808    
     35000   301.72611      0.0035         0.35884844    -137681.8       65.400102     -1538.4809    
     40000   298.6317       0.004          0.29299717    -137699.54      65.432688     -614.504      
     45000   300.79268      0.0045         0.32158796    -137690.16      65.465274     -847.52931    
     50000   299.28019      0.005          0.43722842    -137679.13      65.49786      -1957.9494    
     55000   301.67866      0.0055         0.36084817    -137688.46      65.530446     -1028.1092    
     60000   300.43999      0.006          0.36532495    -137683.52      65.563032     -895.65757    
     65000   300.22054      0.0065         0.47099312    -137680.46      65.595618     -1863.1197    
     70000   299.51983      0.007          0.44271363    -137687         65.628204     -1411.1251    
     75000   299.06589      0.0075         0.43316017    -137679.2       65.66079      -1156.6627    
     80000   299.50741      0.008          0.51872506    -137681.75      65.693376     -1916.2262    
     85000   303.00813      0.0085         0.52085481    -137686.18      65.725962     -1841.6861    
     90000   298.80089      0.009          0.51200858    -137688.04      65.758548     -1704.6974    
     95000   300.23594      0.0095         0.55705914    -137687.23      65.791134     -1859.7209    
    100000   302.72864      0.01           0.58376077    -137677.33      65.82372      -2126.5164    
    105000   299.23067      0.0105         0.55485691    -137683.2       65.856306     -1668.9377    
    110000   300.19381      0.011          0.60358422    -137677.16      65.888892     -1952.6645    
    115000   301.16812      0.0115         0.64625092    -137682.04      65.921478     -2438.0745    
    120000   299.75297      0.012          0.62590466    -137690.84      65.954064     -2031.4982    
    125000   301.48398      0.0125         0.63041443    -137694.39      65.98665      -1881.9481    
    130000   299.83161      0.013          0.67572507    -137679.13      66.019236     -2426.0415    
    135000   302.27555      0.0135         0.69878017    -137679.05      66.051822     -2446.8009    
    140000   300.04593      0.014          0.6760166     -137671.87      66.084408     -1960.1521    
    145000   300.62116      0.0145         0.72148848    -137676.39      66.116994     -2445.3619    
    150000   300.13918      0.015          0.78681368    -137679.78      66.14958      -2976.5557    
    155000   301.66754      0.0155         0.72346984    -137673.51      66.182166     -2157.2819    
    160000   300.59606      0.016          0.76726407    -137679.69      66.214752     -2525.0474    
    165000   297.96691      0.0165         0.84453079    -137666.06      66.247338     -3014.9184    
    170000   297.52227      0.017          0.81418814    -137678.14      66.279924     -2634.2177    
    175000   300.69752      0.0175         0.80204154    -137663.22      66.31251      -2423.7107    
    180000   300.74035      0.018          0.87647647    -137657.67      66.345096     -3120.7219    
    185000   300.19031      0.0185         0.91373344    -137664.48      66.377682     -3286.2827    
    190000   300.57866      0.019          0.85141245    -137673.34      66.410268     -2553.9954    
    195000   297.5842       0.0195         0.89859502    -137662.61      66.442854     -2966.1858    
    200000   298.4979       0.02           0.93447879    -137668.04      66.47544      -3110.1087    
    205000   300.92089      0.0205         0.93626056    -137650.64      66.508026     -2927.0174    
    210000   300.83386      0.021          0.97256591    -137662.43      66.540612     -3234.0295    
    215000   299.70002      0.0215         0.99857655    -137658         66.573198     -3359.2087    
    220000   301.27888      0.022          1.0092589     -137645.87      66.605784     -3337.0021    
    225000   296.30281      0.0225         0.99542363    -137647.1       66.63837      -3129.9189    
    230000   298.27053      0.023          1.0979338     -137650.6       66.670956     -3963.276     
    235000   300.93489      0.0235         1.0744585     -137646.69      66.703542     -3561.6151    
    240000   300.40972      0.024          1.0616086     -137636.24      66.736128     -3332.7391    
    245000   299.76142      0.0245         1.1025582     -137642.45      66.768714     -3637.9299    
    250000   300.40354      0.025          1.1306294     -137636.66      66.8013       -3847.249     
    255000   301.65865      0.0255         1.1381788     -137627.31      66.833886     -3733.3463    
    260000   300.10828      0.026          1.1536611     -137643.28      66.866472     -3764.5722    
    265000   298.78709      0.0265         1.2054437     -137634.78      66.899058     -4228.8577    
    270000   302.17355      0.027          1.2139095     -137624.88      66.931644     -3998.998     
    275000   302.71902      0.0275         1.2037358     -137621.38      66.96423      -3875.7704    
    280000   297.77196      0.028          1.2453938     -137622.6       66.996816     -4196.2921    
    285000   301.87806      0.0285         1.2694721     -137628.9       67.029402     -4346.0693    
    290000   300.44149      0.029          1.268226      -137615.05      67.061988     -4221.6141    
    295000   297.89036      0.0295         1.3106813     -137617.71      67.094574     -4451.5954    
    300000   301.99946      0.03           1.3382716     -137609.3       67.12716      -4451.5112    
    305000   299.70318      0.0305         1.3518193     -137611.83      67.159746     -4576.0593    
    310000   302.0211       0.031          1.3404368     -137600.29      67.192332     -4401.0319    
    315000   300.23215      0.0315         1.370488      -137609.16      67.224918     -4522.8403    
    320000   296.8663       0.032          1.3848646     -137588.4       67.257504     -4550.9748    
    325000   300.21234      0.0325         1.4440518     -137600.17      67.29009      -4944.3496    
    330000   299.53346      0.033          1.4631512     -137596.51      67.322676     -4986.8419    
    335000   298.57582      0.0335         1.4469965     -137593.04      67.355262     -4742.8911    
    340000   300.39304      0.034          1.4950463     -137586.09      67.387848     -5222.4116    
    345000   299.31604      0.0345         1.4871692     -137585.34      67.420434     -4911.0382    
    350000   298.86292      0.035          1.5249698     -137580.82      67.45302      -5071.0134    
    355000   299.80895      0.0355         1.5320722     -137575.16      67.485606     -5186.8191    
    360000   300.95615      0.036          1.5602854     -137572.29      67.518192     -5240.9388    
    365000   301.16376      0.0365         1.5491906     -137571.84      67.550778     -4946.0989    
    370000   303.25893      0.037          1.5929492     -137580.95      67.583364     -5350.5636    
    375000   298.72481      0.0375         1.6180371     -137576.31      67.61595      -5471.1318    
    380000   300.56578      0.038          1.6070188     -137564         67.648536     -5101.8129    
    385000   301.74474      0.0385         1.628832      -137567.29      67.681122     -5469.4863    
    390000   303.20248      0.039          1.6643342     -137549.58      67.713708     -5660.827     
    395000   299.48397      0.0395         1.6839236     -137547.7       67.746294     -5562.3016    
    400000   299.24761      0.04           1.7177788     -137535.72      67.77888      -5650.0635    
    405000   299.66984      0.0405         1.7134362     -137541.59      67.811466     -5704.6059    
    410000   298.98362      0.041          1.7506803     -137546.18      67.844052     -5831.5117    
    415000   298.15062      0.0415         1.8002256     -137541.33      67.876638     -6185.9917    
    420000   298.12998      0.042          1.7572281     -137531.52      67.909224     -5710.7187    
    425000   299.73443      0.0425         1.8155394     -137534.39      67.94181      -6075.2052    
    430000   301.24517      0.043          1.8166281     -137514.48      67.974396     -6046.6384    
    435000   299.46386      0.0435         1.8817878     -137520.62      68.006982     -6447.2077    
    440000   300.05578      0.044          1.8559786     -137520.91      68.039568     -6135.0522    
    445000   298.10381      0.0445         1.9135671     -137517.32      68.072154     -6574.2098    
    450000   300.76863      0.045          1.8678094     -137506.4       68.10474      -6127.2918    
    455000   300.98505      0.0455         1.9176842     -137495.98      68.137326     -6287.3863    
    460000   300.15968      0.046          1.9806363     -137506.85      68.169912     -6992.0175    
    465000   299.75725      0.0465         1.9539218     -137488.28      68.202498     -6519.0752    
    470000   298.53159      0.047          1.9414317     -137493.94      68.235084     -6215.5133    
    475000   299.58517      0.0475         2.0014813     -137486.06      68.26767      -6850.9541    
    480000   300.51819      0.048          2.0493091     -137486.1       68.300256     -6971.4473    
    485000   299.73211      0.0485         2.0706134     -137489.44      68.332842     -6883.8854    
    490000   299.19938      0.049          2.0150958     -137474.69      68.365428     -6261.1048    
    495000   298.04491      0.0495         2.1050501     -137461.87      68.398014     -7297.2906    
    500000   301.60386      0.05           2.1185512     -137459.09      68.4306       -7169.2775    
    505000   301.1744       0.0505         2.094022      -137463.19      68.463186     -6692.2831    
    510000   302.03056      0.051          2.1618898     -137454.04      68.495772     -7330.6457    
    515000   299.50622      0.0515         2.1862147     -137460.32      68.528358     -7440.6862    
    520000   299.91699      0.052          2.1985793     -137457.57      68.560944     -7299.7391    
    525000   300.25519      0.0525         2.1871307     -137451.5       68.59353      -7076.6181    
    530000   299.46861      0.053          2.2396852     -137453.56      68.626116     -7579.2219    
    535000   299.17309      0.0535         2.2714386     -137440.39      68.658702     -7875.4555    
    540000   299.86057      0.054          2.268543      -137433.39      68.691288     -7434.7699    
    545000   301.51231      0.0545         2.2686826     -137420.47      68.723874     -7378.3758    
    550000   298.25834      0.055          2.3162487     -137420.61      68.75646      -7786.0674    
    555000   299.14509      0.0555         2.3329346     -137403.89      68.789046     -7929.0903    
    560000   300.01369      0.056          2.3311199     -137402.31      68.821632     -7613.0307    
    565000   302.35833      0.0565         2.3615613     -137402.04      68.854218     -7760.5146    
    570000   302.48796      0.057          2.4068323     -137398.97      68.886804     -8210.0546    
    575000   300.15256      0.0575         2.4086029     -137390.57      68.91939      -7919.738     
    580000   302.82833      0.058          2.4206316     -137391.94      68.951976     -8029.381     
    585000   299.94487      0.0585         2.4562533     -137381.25      68.984562     -8181.6187    
    590000   301.97394      0.059          2.479363      -137378.25      69.017148     -8313.8412    
    595000   302.3679       0.0595         2.4910283     -137371.11      69.049734     -8288.7008    
    600000   301.48276      0.06           2.4783382     -137370.63      69.08232      -8120.3634    
    605000   300.00344      0.0605         2.5132371     -137372.53      69.114906     -8349.6718    
    610000   300.61337      0.061          2.5547789     -137366.53      69.147492     -8511.7715    
    615000   302.99049      0.0615         2.5705522     -137359.2       69.180078     -8440.6364    
    620000   297.29765      0.062          2.572379      -137345.81      69.212664     -8540.5634    
    625000   297.5882       0.0625         2.6346744     -137341.09      69.24525      -8937.9819    
    630000   299.85125      0.063          2.6383557     -137328.56      69.277836     -8909.1678    
    635000   301.51373      0.0635         2.6384877     -137320.22      69.310422     -8754.5243    
    640000   298.5817       0.064          2.6598712     -137323.87      69.343008     -8713.0567    
    645000   298.89195      0.0645         2.735378      -137312.56      69.375594     -9270.8692    
    650000   300.82672      0.065          2.7271261     -137311.72      69.40818      -9186.6794    
    655000   300.81072      0.0655         2.7249741     -137317.46      69.440766     -9029.5084    
    660000   299.96874      0.066          2.7599656     -137296.35      69.473352     -9134.2604    
    665000   299.28913      0.0665         2.8107394     -137298.75      69.505938     -9398.3155    
    670000   299.28184      0.067          2.8036176     -137298.69      69.538524     -9327.6307    
    675000   301.7703       0.0675         2.8218056     -137279.66      69.57111      -9382.5394    
    680000   299.30233      0.068          2.8316649     -137273.22      69.603696     -9387.5013    
    685000   301.41648      0.0685         2.8651837     -137270.13      69.636282     -9580.4791    
    690000   299.94116      0.069          2.8661982     -137250.45      69.668868     -9400.1443    
    695000   302.30239      0.0695         2.904739      -137251.46      69.701454     -9745.0149    
    700000   301.06644      0.07           2.9457349     -137253.63      69.73404      -9853.3068    
    705000   299.77548      0.0705         2.9341555     -137236.66      69.766626     -9699.7039    
    710000   300.94997      0.071          2.9840059     -137228.16      69.799212     -10020.316    
    715000   301.27225      0.0715         3.0047844     -137229.51      69.831798     -10132.841    
    720000   300.03358      0.072          2.9986412     -137219.99      69.864384     -10051.213    
    725000   298.49115      0.0725         2.9893238     -137217.94      69.89697      -9682.0359    
    730000   298.25476      0.073          3.0865431     -137211.77      69.929556     -10531.105    
    735000   300.24392      0.0735         3.0875816     -137207.34      69.962142     -10287.732    
    740000   300.53702      0.074          3.0959376     -137201.2       69.994728     -10254.912    
    745000   299.80723      0.0745         3.1218056     -137197.75      70.027314     -10526.346    
    750000   302.04189      0.075          3.1629566     -137189.39      70.0599       -10641.224    
    755000   300.5696       0.0755         3.1540617     -137167.79      70.092486     -10402.72     
    760000   299.5717       0.076          3.2061578     -137162.57      70.125072     -10762.011    
    765000   300.23308      0.0765         3.2130185     -137166.81      70.157658     -10753.291    
    770000   303.69127      0.077          3.2180708     -137145.05      70.190244     -10716.313    
    775000   298.01701      0.0775         3.2424435     -137149.03      70.22283      -10796.664    
    780000   298.51815      0.078          3.2766663     -137144.1       70.255416     -10963.294    
    785000   300.22294      0.0785         3.324028      -137141.28      70.288002     -11130.182    
    790000   299.08081      0.079          3.3188215     -137139.91      70.320588     -11155.475    
    795000   300.27282      0.0795         3.3324407     -137111.55      70.353174     -11154.827    
    800000   301.73244      0.08           3.3811033     -137106.38      70.38576      -11237.919    
    805000   299.32602      0.0805         3.3774539     -137105.27      70.418346     -11125.531    
    810000   299.83228      0.081          3.4069893     -137098.71      70.450932     -11325.801    
    815000   302.46611      0.0815         3.4461738     -137088.81      70.483518     -11434.901    
    820000   300.75079      0.082          3.4369652     -137083.36      70.516104     -11438.698    
    825000   299.37622      0.0825         3.479452      -137075.59      70.54869      -11653.587    
    830000   298.67308      0.083          3.5228773     -137067.71      70.581276     -11856.607    
    835000   300.70676      0.0835         3.5028003     -137057.49      70.613862     -11539.188    
    840000   300.75005      0.084          3.5243241     -137051.58      70.646448     -11649.739    
    845000   298.89599      0.0845         3.5641821     -137027.29      70.679034     -11978.992    
    850000   297.65368      0.085          3.6108785     -137026.84      70.71162      -12178.957    
    855000   297.0441       0.0855         3.6148942     -137027.76      70.744206     -12200.501    
    860000   302.07809      0.086          3.6026434     -137012.58      70.776792     -11796.8      
    865000   299.39936      0.0865         3.6373875     -137005.21      70.809378     -12115.115    
    870000   300.7534       0.087          3.6714918     -137014.96      70.841964     -12368.039    
    875000   301.50588      0.0875         3.6876111     -136999.66      70.87455      -12306.643    
    880000   301.41512      0.088          3.7073595     -136981.19      70.907136     -12289.733    
    885000   302.02697      0.0885         3.7148017     -136980.47      70.939722     -12299.399    
    890000   300.09154      0.089          3.7482508     -136970.84      70.972308     -12532.574    
    895000   302.07385      0.0895         3.7728616     -136956.85      71.004894     -12734.683    
    900000   299.63802      0.09           3.7869424     -136946.61      71.03748      -12683.575    
    905000   301.2635       0.0905         3.7648324     -136947.07      71.070066     -12334.696    
    910000   300.22595      0.091          3.823146      -136945.3       71.102652     -12730.735    
    915000   301.02404      0.0915         3.8908597     -136924.17      71.135238     -13281.573    
    920000   298.89669      0.092          3.8912277     -136917.94      71.167824     -12970.037    
    925000   301.08149      0.0925         3.8866838     -136925.02      71.20041      -12824.633    
    930000   301.04183      0.093          3.9342118     -136894.34      71.232996     -12981.176    
    935000   299.87818      0.0935         3.9653849     -136900.07      71.265582     -13346.773    
    940000   298.2952       0.094          3.9962644     -136888.78      71.298168     -13528.019    
    945000   299.53766      0.0945         4.0127539     -136877.95      71.330754     -13333.35     
    950000   298.11581      0.095          4.0062049     -136869.69      71.36334      -13391.045    
    955000   300.07443      0.0955         4.0391332     -136870.3       71.395926     -13441.404    
    960000   299.57139      0.096          4.080136      -136855.58      71.428512     -13719.626    
    965000   299.15495      0.0965         4.1173788     -136849.63      71.461098     -13829.709    
    970000   299.41872      0.097          4.1126079     -136833.64      71.493684     -13651.536    
    975000   299.87842      0.0975         4.1090386     -136826.42      71.52627      -13621.639    
    980000   298.00756      0.098          4.153722      -136822.03      71.558856     -13902.873    
    985000   297.40437      0.0985         4.1985414     -136819.43      71.591442     -14149.807    
    990000   298.54673      0.099          4.2097259     -136797.65      71.624028     -14203.055    
    995000   300.81353      0.0995         4.2280401     -136793.17      71.656614     -14009.953    
   1000000   299.78021      0.1            4.2247351     -136782.88      71.6892       -13944.176    
   1005000   299.04099      0.1005         4.3022854     -136776.24      71.721786     -14559.253    
   1010000   300.24535      0.101          4.3046978     -136767.67      71.754372     -14481.509    
   1015000   297.0939       0.1015         4.2894327     -136768.24      71.786958     -14276.117    
   1020000   299.1949       0.102          4.3130108     -136754.88      71.819544     -14234.917    
   1025000   302.41849      0.1025         4.3376091     -136746.12      71.85213      -14486.961    
   1030000   300.19156      0.103          4.4025378     -136725.94      71.884716     -14930.884    
   1035000   300.21891      0.1035         4.4209921     -136710.9       71.917302     -14724.987    
   1040000   299.22294      0.104          4.4011977     -136704.86      71.949888     -14482.502    
   1045000   300.95324      0.1045         4.4381725     -136698.58      71.982474     -14816.063    
   1050000   302.66065      0.105          4.4914859     -136692.7       72.01506      -15110.641    
   1055000   298.52992      0.1055         4.4801982     -136678.11      72.047646     -14981.387    
   1060000   300.72339      0.106          4.4912042     -136665.05      72.080232     -14957.735    
   1065000   300.50471      0.1065         4.496063      -136663.32      72.112818     -14854.738    
   1070000   299.89412      0.107          4.5320873     -136660.38      72.145404     -14984.002    
   1075000   299.00155      0.1075         4.5914733     -136651.5       72.17799      -15494.727    
   1080000   299.95523      0.108          4.6035326     -136636.31      72.210576     -15486.839    
   1085000   300.52961      0.1085         4.5845986     -136618.49      72.243162     -15159.515    
   1090000   298.64702      0.109          4.5949754     -136608.03      72.275748     -15084.517    
   1095000   301.57598      0.1095         4.6578193     -136601.59      72.308334     -15472.779    
   1100000   301.76657      0.11           4.6796555     -136590         72.34092      -15602.854    
   1105000   298.55076      0.1105         4.7165772     -136577.92      72.373506     -15726.274    
   1110000   302.22002      0.111          4.7389785     -136576.2       72.406092     -15833.257    
   1115000   300.18964      0.1115         4.7551752     -136558.05      72.438678     -15891.399    
   1120000   299.5062       0.112          4.7653908     -136551.15      72.471264     -15948.052    
   1125000   299.20683      0.1125         4.7774686     -136539.93      72.50385      -15780.637    
   1130000   299.73498      0.113          4.7916502     -136528.52      72.536436     -15808.778    
   1135000   297.61529      0.1135         4.8438164     -136522.18      72.569022     -16127.659    
   1140000   298.95796      0.114          4.8797241     -136517.52      72.601608     -16263.42     
   1145000   301.25147      0.1145         4.9146849     -136501.54      72.634194     -16526.514    
   1150000   298.17404      0.115          4.9041748     -136489.23      72.66678      -16343.864    
   1155000   299.49069      0.1155         4.9149913     -136482.8       72.699366     -16229.258    
   1160000   299.01922      0.116          4.9492842     -136482.45      72.731952     -16523.988    
   1165000   297.76722      0.1165         5.0182806     -136459.73      72.764538     -16904.085    
   1170000   299.61607      0.117          4.9778236     -136453.51      72.797124     -16736.354    
   1175000   300.95607      0.1175         5.0275338     -136438.7       72.82971      -16772.986    
   1180000   299.82337      0.118          5.0423151     -136437.15      72.862296     -16714.618    
   1185000   300.70829      0.1185         5.0478735     -136412.42      72.894882     -16850.402    
   1190000   301.87218      0.119          5.0439244     -136406.58      72.927468     -16747.828    
   1195000   296.36402      0.1195         5.0667284     -136388.94      72.960054     -16716.113    
   1200000   300.33242      0.12           5.1201579     -136397.2       72.99264      -17067.876    
   1205000   299.07361      0.1205         5.1299902     -136379         73.025226     -17145.034    
   1210000   301.50904      0.121          5.1461266     -136367.47      73.057812     -17141.29     
   1215000   301.40114      0.1215         5.1337606     -136365.74      73.090398     -16951.636    
   1220000   299.37588      0.122          5.1982044     -136351.83      73.122984     -17248.715    
   1225000   300.94002      0.1225         5.2114052     -136346.45      73.15557      -17300.094    
   1230000   301.71252      0.123          5.2699116     -136328.71      73.188156     -17767.233    
   1235000   299.91325      0.1235         5.253959      -136319.68      73.220742     -17675.692    
   1240000   298.91792      0.124          5.2860515     -136309.05      73.253328     -17507.585    
   1245000   302.30603      0.1245         5.2790147     -136293.96      73.285914     -17493.598    
   1250000   299.89623      0.125          5.3241927     -136290.93      73.3185       -17609.883    
   1255000   300.30803      0.1255         5.340263      -136271.38      73.351086     -17948.447    
   1260000   297.91752      0.126          5.3775202     -136263.37      73.383672     -18064.884    
   1265000   298.52005      0.1265         5.3861721     -136254.2       73.416258     -17962.727    
   1270000   301.23528      0.127          5.376063      -136240.98      73.448844     -17847.288    
   1275000   300.535        0.1275         5.405305      -136233.3       73.48143      -17961.115    
   1280000   301.52988      0.128          5.4322165     -136207.75      73.514016     -18126.226    
   1285000   299.21641      0.1285         5.4728911     -136202.77      73.546602     -18342.271    
   1290000   300.99847      0.129          5.4873344     -136190.86      73.579188     -18209.197    
   1295000   299.72746      0.1295         5.5130795     -136181.3       73.611774     -18352.321    
   1300000   301.24071      0.13           5.5410529     -136177.1       73.64436      -18576.827    
   1305000   300.71104      0.1305         5.5630692     -136159.31      73.676946     -18648.871    
   1310000   300.69952      0.131          5.5798266     -136157.85      73.709532     -18682.811    
   1315000   299.85794      0.1315         5.5509607     -136142.01      73.742118     -18510.119    
   1320000   301.72517      0.132          5.6212089     -136124.68      73.774704     -18552.283    
   1325000   300.06605      0.1325         5.6245613     -136119.68      73.80729      -18584.324    
   1330000   297.52353      0.133          5.6828548     -136103.3       73.839876     -18958.278    
   1335000   300.40053      0.1335         5.665298      -136094.6       73.872462     -18987.702    
   1340000   301.52691      0.134          5.7018024     -136079.48      73.905048     -19110.418    
   1345000   297.82596      0.1345         5.7298057     -136066.35      73.937634     -19182.579    
   1350000   300.47894      0.135          5.7232148     -136055.81      73.97022      -19013.359    
   1355000   299.92796      0.1355         5.7574734     -136045.36      74.002806     -19250.566    
   1360000   297.75061      0.136          5.7644592     -136042.62      74.035392     -19163.019    
   1365000   299.01076      0.1365         5.795612      -136021.73      74.067978     -19506.046    
   1370000   300.07063      0.137          5.8063236     -136018.43      74.100564     -19281.083    
   1375000   302.12399      0.1375         5.8172098     -136004.22      74.13315      -19421.351    
   1380000   300.61305      0.138          5.8641262     -136010.14      74.165736     -19656.858    
   1385000   297.83674      0.1385         5.8776815     -135985.13      74.198322     -19656.898    
   1390000   298.86409      0.139          5.9105778     -135967.48      74.230908     -19754.428    
   1395000   302.62247      0.1395         5.8722555     -135955.66      74.263494     -19439.432    
   1400000   301.0788       0.14           5.9109514     -135941.38      74.29608      -19554.424    
   1405000   301.16628      0.1405         5.9700574     -135932.61      74.328666     -19909.475    
   1410000   300.92139      0.141          5.994926      -135922.01      74.361252     -20014.254    
   1415000   299.22675      0.1415         6.0398        -135908.21      74.393838     -20250.437    
   1420000   301.82808      0.142          6.008819      -135894.87      74.426424     -19820.937    
   1425000   300.80931      0.1425         6.038389      -135877.75      74.45901      -20103.389    
   1430000   298.34607      0.143          6.0879653     -135872.04      74.491596     -20369.637    
   1435000   300.59009      0.1435         6.119496      -135862.63      74.524182     -20434.967    
   1440000   299.89714      0.144          6.1172965     -135853.08      74.556768     -20515.254    
   1445000   301.62247      0.1445         6.1503545     -135838.1       74.589354     -20529.465    
   1450000   297.07653      0.145          6.1885296     -135816.16      74.62194      -20797.533    
   1455000   297.99958      0.1455         6.1914813     -135804.67      74.654526     -20625.832    
   1460000   298.70474      0.146          6.1739872     -135800.85      74.687112     -20465.666    
   1465000   300.47279      0.1465         6.2192672     -135794.78      74.719698     -20599.305    
   1470000   298.35337      0.147          6.2519055     -135769.61      74.752284     -20724.573    
   1475000   299.44495      0.1475         6.239361      -135760.4       74.78487      -20885.792    
   1480000   300.44807      0.148          6.3167399     -135743.12      74.817456     -21212.965    
   1485000   299.23622      0.1485         6.3181908     -135733.51      74.850042     -21192.903    
   1490000   299.70972      0.149          6.2999368     -135732.63      74.882628     -20954.813    
   1495000   301.60556      0.1495         6.3476528     -135706.99      74.915214     -21082.686    
   1500000   301.09696      0.15           6.3395789     -135701.79      74.9478       -20883.693    
   1505000   301.03741      0.1505         6.4046638     -135692.13      74.980386     -21452.1      
   1510000   299.28582      0.151          6.4071318     -135670.99      75.012972     -21468.125    
   1515000   297.10497      0.1515         6.4184531     -135662.03      75.045558     -21554.161    
   1520000   299.42243      0.152          6.4458962     -135650.03      75.078144     -21511.261    
   1525000   300.50045      0.1525         6.4600067     -135633.12      75.11073      -21528.678    
   1530000   300.65697      0.153          6.4778423     -135622.96      75.143316     -21465.166    
   1535000   300.0968       0.1535         6.4610214     -135610.97      75.175902     -21369.835    
   1540000   298.77877      0.154          6.5388389     -135600.54      75.208488     -21773.374    
   1545000   299.18327      0.1545         6.5615392     -135574.42      75.241074     -21771.844    
   1550000   301.76896      0.155          6.5346628     -135569.67      75.27366      -21848.439    
   1555000   299.46605      0.1555         6.610178      -135547.95      75.306246     -22016.036    
   1560000   300.59117      0.156          6.5963594     -135538.31      75.338832     -21790.391    
   1565000   300.21731      0.1565         6.6290015     -135523.9       75.371418     -22027.411    
   1570000   300.8464       0.157          6.6118155     -135519.41      75.404004     -21770.225    
   1575000   300.11943      0.1575         6.6756172     -135503.59      75.43659      -22130.574    
   1580000   301.90445      0.158          6.7198872     -135504.52      75.469176     -22643.233    
   1585000   298.80848      0.1585         6.7662883     -135474.97      75.501762     -22716.359    
   1590000   298.30728      0.159          6.7795347     -135466.63      75.534348     -22704.029    
   1595000   300.40358      0.1595         6.7648432     -135443.28      75.566934     -22659.275    
   1600000   299.55781      0.16           6.7174481     -135431.78      75.59952      -22283.272    
   1605000   299.70444      0.1605         6.7524063     -135426.41      75.632106     -22221.454    
   1610000   301.90446      0.161          6.852303      -135415.94      75.664692     -22877.39     
   1615000   299.70268      0.1615         6.8761181     -135393.44      75.697278     -23004.28     
   1620000   300.42086      0.162          6.8438481     -135390.48      75.729864     -22969.798    
   1625000   300.26819      0.1625         6.9634155     -135360.99      75.76245      -23367.887    
   1630000   301.02126      0.163          6.948192      -135341.81      75.795036     -23220.086    
   1635000   300.03169      0.1635         6.9084823     -135350.23      75.827622     -22839.034    
   1640000   300.37811      0.164          6.9022928     -135310.66      75.860208     -22889.323    
   1645000   300.57112      0.1645         6.981695      -135308.15      75.892794     -23099.927    
   1650000   301.85346      0.165          7.0039395     -135299.9       75.92538      -23254.503    
   1655000   298.14394      0.1655         7.0682019     -135276.38      75.957966     -23545.522    
   1660000   300.55447      0.166          7.0763694     -135267.56      75.990552     -23557.814    
   1665000   300.26826      0.1665         7.0560705     -135248.76      76.023138     -23681.48     
   1670000   296.91212      0.167          7.1757575     -135235.13      76.055724     -24005.391    
   1675000   299.47951      0.1675         7.1556206     -135231         76.08831      -23916.544    
   1680000   299.84416      0.168          7.1363572     -135208.45      76.120896     -23812.911    
   1685000   302.19078      0.1685         7.1076518     -135197.74      76.153482     -23513.789    
   1690000   299.14458      0.169          7.1996578     -135191.56      76.186068     -23791.111    
   1695000   299.90909      0.1695         7.2411324     -135173.19      76.218654     -24192.748    
   1700000   299.48914      0.17           7.2397738     -135163.32      76.25124      -24127.363    
   1705000   298.65433      0.1705         7.2673856     -135132.96      76.283826     -24377.228    
   1710000   298.20346      0.171          7.3215482     -135125.57      76.316412     -24522.958    
   1715000   300.08471      0.1715         7.3262155     -135115.98      76.348998     -24420.491    
   1720000   300.46311      0.172          7.3173964     -135092.63      76.381584     -24234.767    
   1725000   301.34968      0.1725         7.3187487     -135081.3       76.41417      -24199.139    
   1730000   299.72585      0.173          7.3553104     -135062.4       76.446756     -24501.706    
   1735000   299.58162      0.1735         7.4045713     -135058.06      76.479342     -24644.743    
   1740000   298.6912       0.174          7.4197152     -135047.86      76.511928     -24627.986    
   1745000   300.09857      0.1745         7.3877814     -135028.86      76.544514     -24508.394    
   1750000   300.96037      0.175          7.4420081     -135006.4       76.5771       -24882.226    
   1755000   297.78671      0.1755         7.4833816     -134989.4       76.609686     -25023.451    
   1760000   302.27035      0.176          7.4982736     -134989.52      76.642272     -24956.342    
   1765000   302.83878      0.1765         7.4761485     -134958.44      76.674858     -24904.034    
   1770000   299.61237      0.177          7.5353914     -134948.13      76.707444     -25192.865    
   1775000   299.22486      0.1775         7.567057      -134943.55      76.74003      -25188.947    
   1780000   299.81892      0.178          7.5980782     -134917.66      76.772616     -25347.516    
   1785000   304.26928      0.1785         7.6043975     -134900.05      76.805202     -25270.093    
   1790000   301.81402      0.179          7.6215724     -134893.3       76.837788     -25428.771    
   1795000   300.34317      0.1795         7.7030617     -134871.46      76.870374     -25882.186    
   1800000   297.61441      0.18           7.7056049     -134850.88      76.90296      -25855.832    
   1805000   301.80581      0.1805         7.7110995     -134847.21      76.935546     -25979.945    
   1810000   300.09655      0.181          7.66762       -134835.21      76.968132     -25497.614    
   1815000   296.85736      0.1815         7.7035725     -134812.56      77.000718     -25556.866    
   1820000   300.64024      0.182          7.74141       -134789.26      77.033304     -25727.477    
   1825000   300.2476       0.1825         7.7475283     -134790.3       77.06589      -25729.565    
   1830000   299.99822      0.183          7.7807951     -134775.83      77.098476     -25836.161    
   1835000   300.42777      0.1835         7.809044      -134760.92      77.131062     -26064.924    
   1840000   299.2568       0.184          7.8261518     -134740.66      77.163648     -26278.293    
   1845000   302.08751      0.1845         7.8132457     -134737.03      77.196234     -25969.944    
   1850000   300.13858      0.185          7.8382557     -134712.37      77.22882      -25982.041    
   1855000   301.8107       0.1855         7.8779962     -134696.68      77.261406     -26149.862    
   1860000   299.62471      0.186          7.8341576     -134679.96      77.293992     -25909.731    
   1865000   297.79548      0.1865         7.8383795     -134670.87      77.326578     -25899.645    
   1870000   298.83505      0.187          7.9230608     -134651.84      77.359164     -26343.108    
   1875000   300.64021      0.1875         7.9232512     -134633.94      77.39175      -26428.155    
   1880000   299.27689      0.188          7.9611373     -134628.79      77.424336     -26743.884    
   1885000   299.85725      0.1885         7.955445      -134613.51      77.456922     -26570.37     
   1890000   299.71111      0.189          8.0318204     -134596.36      77.489508     -26893.737    
   1895000   302.16291      0.1895         8.056741      -134586.79      77.522094     -26959.055    
   1900000   298.9409       0.19           8.0383521     -134559.58      77.55468      -26789.019    
   1905000   299.26259      0.1905         8.0405978     -134552.52      77.587266     -26740.824    
   1910000   300.80494      0.191          8.0625028     -134541.72      77.619852     -26808.627    
   1915000   299.06935      0.1915         8.1074167     -134519.41      77.652438     -27054.391    
   1920000   299.62169      0.192          8.1399638     -134491.17      77.685024     -27077.872    
   1925000   301.00357      0.1925         8.1943922     -134484.61      77.71761      -27350.428    
   1930000   299.96992      0.193          8.1495856     -134468.3       77.750196     -27133.178    
   1935000   298.95792      0.1935         8.1688748     -134456.57      77.782782     -27231.392    
   1940000   297.58125      0.194          8.2383415     -134435.64      77.815368     -27647.497    
   1945000   299.8847       0.1945         8.2777445     -134435.28      77.847954     -27760.549    
   1950000   299.41282      0.195          8.2635398     -134417.55      77.88054      -27732.157    
   1955000   300.52015      0.1955         8.2811791     -134403.92      77.913126     -27627.769    
   1960000   300.96931      0.196          8.3148692     -134389.26      77.945712     -27865.495    
   1965000   297.92729      0.1965         8.3173485     -134367.96      77.978298     -27740.367    
   1970000   302.17902      0.197          8.3249655     -134345.63      78.010884     -27608.214    
   1975000   299.82772      0.1975         8.3393921     -134337.19      78.04347      -27543.393    
   1980000   300.78531      0.198          8.3232192     -134328.77      78.076056     -27522.951    
   1985000   298.71575      0.1985         8.3574197     -134308.71      78.108642     -27849.738    
   1990000   301.75509      0.199          8.4384679     -134288.4       78.141228     -28217.501    
   1995000   301.8138       0.1995         8.4139643     -134270.46      78.173814     -28217.22     
   2000000   298.80121      0.2            8.4555363     -134264.88      78.2064       -28408.563    
Loop time of 145495 on 1 procs for 2000000 steps with 30252 atoms

Performance: 1.188 ns/day, 20.208 hours/ns, 13.746 timesteps/s, 415.850 katom-step/s
95.6% CPU use with 1 MPI tasks x 1 OpenMP threads

MPI task timing breakdown:
Section |  min time  |  avg time  |  max time  |%varavg| %total
---------------------------------------------------------------
Pair    | 1.4243e+05 | 1.4243e+05 | 1.4243e+05 |   0.0 | 97.89
Neigh   | 557.89     | 557.89     | 557.89     |   0.0 |  0.38
Comm    | 64.521     | 64.521     | 64.521     |   0.0 |  0.04
Output  | 0.22111    | 0.22111    | 0.22111    |   0.0 |  0.00
Modify  | 2074.1     | 2074.1     | 2074.1     |   0.0 |  1.43
Other   |            | 366.3      |            |       |  0.25

Nlocal:          30252 ave       30252 max       30252 min
Histogram: 1 0 0 0 0 0 0 0 0 0
Nghost:           4231 ave        4231 max        4231 min
Histogram: 1 0 0 0 0 0 0 0 0 0
Neighs:              0 ave           0 max           0 min
Histogram: 1 0 0 0 0 0 0 0 0 0
FullNghs:       856452 ave      856452 max      856452 min
Histogram: 1 0 0 0 0 0 0 0 0 0

Total # of neighbors = 856452
Ave neighs/atom = 28.310591
Neighbor list builds = 14153
Dangerous builds = 0
DONE RAD=10 RATE=0.0001 atoms=30252 finalstrain=0.2000000000000000111
Total wall time: 40:55:52
