LAMMPS (7 Feb 2024 - Update 1)
OMP_NUM_THREADS environment is not set. Defaulting to 1 thread. (src/comm.cpp:98)
  using 1 OpenMP thread(s) per MPI task
Lattice spacing in x,y,z = 5.431 5.431 5.431
Created orthogonal box = (-81.465 -81.465 0) to (81.465 81.465 65.172)
  1 by 1 by 1 MPI processor grid
Created 14748 atoms
  using lattice units in orthogonal box = (-81.481293 -81.481293 0) to (81.481293 81.481293 65.172)
  create_atoms CPU = 0.003 seconds
Reading tersoff potential file Si.tersoff with DATE: 2007-10-25
Neighbor list info ...
  update: every = 1 steps, delay = 0 steps, check = yes
  max neighbors/atom: 2000, page size: 100000
  master list distance cutoff = 5.2
  ghost atom cutoff = 5.2
  binsize = 2.6, bins = 63 63 26
  1 neighbor lists, perpetual/occasional/extra = 1 0 0
  (1) pair tersoff, perpetual
      attributes: full, newton on
      pair build: full/bin/atomonly
      stencil: full/bin/3d
      bin: standard
Setting up cg style minimization ...
  Unit style    : metal
  Current step  : 0
Per MPI rank memory allocation (min/avg/max) = 9.114 | 9.114 | 9.114 Mbytes
   Step          Temp          E_pair         E_mol          TotEng         Press          Volume    
         0   0             -66648.639      0             -66648.639     -2229.6919      377093.37    
        26   0             -66658.459      0             -66658.459     -132.44183      377093.37    
Loop time of 1.48865 on 1 procs for 26 steps with 14748 atoms

96.3% CPU use with 1 MPI tasks x 1 OpenMP threads

Minimization stats:
  Stopping criterion = energy tolerance
  Energy initial, next-to-last, final = 
     -66648.6385080089  -66658.4587175514  -66658.4593717473
  Force two-norm initial, final = 14.966484 0.098294504
  Force max component initial, final = 0.4601903 0.0025251828
  Final line search alpha, max atom move = 1 0.0025251828
  Iterations, force evaluations = 26 52

MPI task timing breakdown:
Section |  min time  |  avg time  |  max time  |%varavg| %total
---------------------------------------------------------------
Pair    | 1.4735     | 1.4735     | 1.4735     |   0.0 | 98.98
Neigh   | 0          | 0          | 0          |   0.0 |  0.00
Comm    | 0.00078591 | 0.00078591 | 0.00078591 |   0.0 |  0.05
Output  | 0          | 0          | 0          |   0.0 |  0.00
Modify  | 0          | 0          | 0          |   0.0 |  0.00
Other   |            | 0.01438    |            |       |  0.97

Nlocal:          14748 ave       14748 max       14748 min
Histogram: 1 0 0 0 0 0 0 0 0 0
Nghost:           2153 ave        2153 max        2153 min
Histogram: 1 0 0 0 0 0 0 0 0 0
Neighs:              0 ave           0 max           0 min
Histogram: 1 0 0 0 0 0 0 0 0 0
FullNghs:       391440 ave      391440 max      391440 min
Histogram: 1 0 0 0 0 0 0 0 0 0

Total # of neighbors = 391440
Ave neighs/atom = 26.541904
Neighbor list builds = 0
Dangerous builds = 0
Setting up Verlet run ...
  Unit style    : metal
  Current step  : 0
  Time step     : 0.001
Per MPI rank memory allocation (min/avg/max) = 6.866 | 6.866 | 6.866 Mbytes
   Step          Temp          PotEng         Press           Pzz             Lz      
         0   300           -66658.459      1495.7482      1388.2331      65.172       
      1000   300.50162     -66538.5        714.31626     -458.01126      65.172       
      2000   301.56514     -66736.103     -876.74568     -1770.785       65.172       
      3000   300.46586     -66798.889     -1318.886      -2512.3702      65.172       
      4000   300.53216     -66824.241      544.50194     -1119.9328      65.172       
      5000   298.43752     -66831.425     -1335.6973     -2686.4983      65.172       
      6000   301.7324      -66841.69      -1495.1971     -3036.1054      65.172       
      7000   301.7253      -66836.642      457.24502     -1101.0447      65.172       
      8000   298.13133     -66847.593     -976.62009     -2348.2882      65.172       
      9000   302.04962     -66845.155     -1549.8023     -2972.6615      65.172       
     10000   299.14144     -66850.665      342.45249     -1442.2284      65.172       
     11000   302.51053     -66843.952     -1348.3433     -2859.375       65.172       
     12000   300.59046     -66856.529     -1209.1799     -2803.3216      65.172       
     13000   303.17286     -66855.847      366.82226     -1372.8916      65.172       
     14000   296.7729      -66856.136     -1492.4433     -3011.9716      65.172       
     15000   304.47872     -66858.23      -722.43933     -2177.6732      65.172       
     16000   301.27647     -66860.466      114.74834     -1465.1574      65.172       
     17000   300.63078     -66868.445     -1524.1055     -2954.4527      65.172       
     18000   297.99245     -66860.896     -1036.3886     -2492.5632      65.172       
     19000   296.53901     -66860.938      436.07655     -1218.956       65.172       
     20000   299.99        -66864.66      -1400.4939     -2808.7188      65.172       
     21000   301.3466      -66860.013     -1165.771      -2855.3913      65.172       
     22000   304.41494     -66866.587      235.31286     -1507.1979      65.172       
     23000   298.15505     -66861.092     -1485.3239     -2941.3046      65.172       
     24000   301.03806     -66866.023     -1004.2858     -2568.1931      65.172       
     25000   301.17069     -66870.066      235.42447     -1406.1244      65.172       
     26000   297.64656     -66859.876     -1635.0382     -3040.7405      65.172       
     27000   300.19969     -66863.819     -1053.7589     -2861.8169      65.172       
     28000   297.68958     -66871.305      206.34477     -1406.2318      65.172       
     29000   297.84006     -66864.071     -1758.0168     -3322.0257      65.172       
     30000   299.08455     -66866.768     -706.42272     -2204.2568      65.172       
Loop time of 947.466 on 1 procs for 30000 steps with 14748 atoms

Performance: 2.736 ns/day, 8.773 hours/ns, 31.663 timesteps/s, 466.972 katom-step/s
96.2% CPU use with 1 MPI tasks x 1 OpenMP threads

MPI task timing breakdown:
Section |  min time  |  avg time  |  max time  |%varavg| %total
---------------------------------------------------------------
Pair    | 933.86     | 933.86     | 933.86     |   0.0 | 98.56
Neigh   | 3.8251     | 3.8251     | 3.8251     |   0.0 |  0.40
Comm    | 0.48942    | 0.48942    | 0.48942    |   0.0 |  0.05
Output  | 0.0040818  | 0.0040818  | 0.0040818  |   0.0 |  0.00
Modify  | 7.4951     | 7.4951     | 7.4951     |   0.0 |  0.79
Other   |            | 1.795      |            |       |  0.19

Nlocal:          14748 ave       14748 max       14748 min
Histogram: 1 0 0 0 0 0 0 0 0 0
Nghost:           2198 ave        2198 max        2198 min
Histogram: 1 0 0 0 0 0 0 0 0 0
Neighs:              0 ave           0 max           0 min
Histogram: 1 0 0 0 0 0 0 0 0 0
FullNghs:       400654 ave      400654 max      400654 min
Histogram: 1 0 0 0 0 0 0 0 0 0

Total # of neighbors = 400654
Ave neighs/atom = 27.166667
Neighbor list builds = 237
Dangerous builds = 0
Setting up Verlet run ...
  Unit style    : metal
  Current step  : 0
  Time step     : 0.001
Per MPI rank memory allocation (min/avg/max) = 7.248 | 7.248 | 7.248 Mbytes
   Step          Temp         v_strain     v_stress_GPa      PotEng           Lz           Press     
         0   299.08455      0              0.21999948    -66866.768      65.172        -705.05685    
      5000   295.67077      0.0005         0.31517107    -66871.242      65.204586     -1642.802     
     10000   298.97837      0.001          0.2290831     -66862.088      65.237172     -286.49515    
     15000   301.26806      0.0015         0.27859514    -66869.198      65.269758     -707.91835    
     20000   298.2037       0.002          0.39820831    -66872.153      65.302344     -1873.1607    
     25000   300.84653      0.0025         0.31347399    -66870.529      65.33493      -735.18047    
     30000   302.06093      0.003          0.32056714    -66870.115      65.367516     -824.87069    
     35000   301.85182      0.0035         0.431686      -66883.212      65.400102     -2130.9859    
     40000   299.50931      0.004          0.35968409    -66880.482      65.432688     -1171.4342    
     45000   297.24235      0.0045         0.40478254    -66875.838      65.465274     -1245.0984    
     50000   300.19401      0.005          0.45981118    -66879.53       65.49786      -1813.2955    
     55000   303.30097      0.0055         0.38642069    -66876.722      65.530446     -1079.1694    
     60000   301.98241      0.006          0.42134136    -66879.471      65.563032     -1252.6897    
     65000   298.75268      0.0065         0.49485868    -66878.927      65.595618     -1968.446     
     70000   301.62216      0.007          0.47848608    -66876.756      65.628204     -1690.6329    
     75000   299.73094      0.0075         0.47172028    -66879.207      65.66079      -1362.3094    
     80000   297.23609      0.008          0.58518203    -66878.165      65.693376     -2346.7745    
     85000   298.89635      0.0085         0.50823061    -66880.305      65.725962     -1620.149     
     90000   301.28494      0.009          0.52014       -66879.283      65.758548     -1484.6945    
     95000   301.33362      0.0095         0.61228831    -66887.712      65.791134     -2134.0916    
    100000   301.14294      0.01           0.59775666    -66882.777      65.82372      -2240.8519    
    105000   297.53826      0.0105         0.60511755    -66888.644      65.856306     -1970.6992    
    110000   300.29747      0.011          0.65642235    -66892.013      65.888892     -2473.4325    
    115000   302.20388      0.0115         0.62542131    -66883.019      65.921478     -2211.9139    
    120000   302.74132      0.012          0.61647203    -66891.996      65.954064     -1884.83      
    125000   299.42114      0.0125         0.65595022    -66887.442      65.98665      -2036.1079    
    130000   300.21937      0.013          0.71797324    -66885.916      66.019236     -2568.772     
    135000   297.87872      0.0135         0.70453716    -66888.411      66.051822     -2338.5697    
    140000   299.8764       0.014          0.73851628    -66886.722      66.084408     -2347.8619    
    145000   298.03879      0.0145         0.7340562     -66877.411      66.116994     -2350.2169    
    150000   301.67423      0.015          0.75084003    -66889.343      66.14958      -2422.2486    
    155000   300.1522       0.0155         0.76472965    -66885.465      66.182166     -2435.5745    
    160000   301.98933      0.016          0.77480468    -66877.745      66.214752     -2527.0145    
    165000   298.57287      0.0165         0.81897768    -66875.937      66.247338     -2697.57      
    170000   301.23572      0.017          0.82911423    -66880.403      66.279924     -2746.5372    
    175000   299.03218      0.0175         0.87186882    -66879.852      66.31251      -3018.5771    
    180000   299.10342      0.018          0.87860097    -66878.355      66.345096     -2860.4429    
    185000   302.10197      0.0185         0.86050425    -66879.692      66.377682     -2648.0549    
    190000   301.09748      0.019          0.92443479    -66879.744      66.410268     -3326.6922    
    195000   299.72411      0.0195         0.94106724    -66874.409      66.442854     -3271.9193    
    200000   299.81396      0.02           0.90614156    -66870.726      66.47544      -2808.1551    
    205000   300.42734      0.0205         0.9479962     -66866.152      66.508026     -3048.5275    
    210000   301.22384      0.021          0.99947022    -66875.853      66.540612     -3596.6905    
    215000   300.73866      0.0215         0.96777428    -66867.899      66.573198     -3059.0509    
    220000   297.43612      0.022          0.98944691    -66875.935      66.605784     -3170.4512    
    225000   299.39495      0.0225         1.0360781     -66868.399      66.63837      -3625.261     
    230000   298.27293      0.023          1.0327955     -66871.107      66.670956     -3483.4138    
    235000   303.06902      0.0235         1.0221629     -66869.43       66.703542     -3103.3135    
    240000   300.74274      0.024          1.1070359     -66874.254      66.736128     -3883.2449    
    245000   299.08362      0.0245         1.108945      -66868.485      66.768714     -3766.6524    
    250000   301.29878      0.025          1.1469157     -66865.263      66.8013       -3912.4127    
    255000   298.14103      0.0255         1.0929368     -66857.646      66.833886     -3301.4864    
    260000   300.84148      0.026          1.1557459     -66859.858      66.866472     -4144.6995    
    265000   296.76085      0.0265         1.2112299     -66859.114      66.899058     -4394.5136    
    270000   303.88345      0.027          1.1665972     -66862.958      66.931644     -3657.7797    
    275000   299.3021       0.0275         1.2174259     -66864.621      66.96423      -4028.8773    
    280000   303.72351      0.028          1.2534247     -66852.392      66.996816     -4396.162     
    285000   299.23933      0.0285         1.2537258     -66858.945      67.029402     -4104.3455    
    290000   301.2792       0.029          1.2407513     -66851.361      67.061988     -4134.0491    
    295000   296.6284       0.0295         1.3099699     -66853.856      67.094574     -4743.8189    
    300000   303.2569       0.03           1.2933121     -66852.053      67.12716      -4035.6485    
    305000   296.15275      0.0305         1.3213692     -66849.63       67.159746     -4204.8133    
    310000   301.50396      0.031          1.3403688     -66848.917      67.192332     -4568.85      
    315000   297.31303      0.0315         1.3893295     -66846.667      67.224918     -4739.6339    
    320000   295.37801      0.032          1.3637024     -66843.881      67.257504     -4530.2045    
    325000   303.65944      0.0325         1.390459      -66840.107      67.29009      -4475.581     
    330000   299.43644      0.033          1.4371993     -66842.66       67.322676     -4977.5777    
    335000   299.04469      0.0335         1.4577446     -66842.513      67.355262     -5070.3672    
    340000   299.97415      0.034          1.462336      -66839.524      67.387848     -5009.7469    
    345000   299.26823      0.0345         1.4499519     -66836.598      67.420434     -4708.1268    
    350000   301.10556      0.035          1.486586      -66844.589      67.45302      -5089.1088    
    355000   299.06001      0.0355         1.5134068     -66834.238      67.485606     -5099.006     
    360000   296.23225      0.036          1.5223898     -66841.215      67.518192     -5106.6705    
    365000   296.64934      0.0365         1.549904      -66841.675      67.550778     -5032.4387    
    370000   300.0528       0.037          1.5415386     -66832.658      67.583364     -5359.739     
    375000   298.52081      0.0375         1.5883905     -66831.52       67.61595      -5418.0373    
    380000   302.2543       0.038          1.5895138     -66831.782      67.648536     -5166.9127    
    385000   298.6826       0.0385         1.6508289     -66834.103      67.681122     -5629.6882    
    390000   301.14787      0.039          1.6168587     -66822.587      67.713708     -5423.6168    
    395000   299.64481      0.0395         1.6238354     -66829.44       67.746294     -5068.1705    
    400000   296.64056      0.04           1.6908876     -66822.42       67.77888      -5697.7199    
    405000   302.42182      0.0405         1.7300909     -66819.813      67.811466     -5987.0477    
    410000   298.90066      0.041          1.686216      -66822.255      67.844052     -5419.8629    
    415000   297.62251      0.0415         1.7433088     -66817.87       67.876638     -5878.3103    
    420000   300.01777      0.042          1.8093345     -66812.564      67.909224     -6412.9602    
    425000   296.56028      0.0425         1.7831115     -66812.209      67.94181      -5993.5142    
    430000   298.10757      0.043          1.8088428     -66812.147      67.974396     -5880.7731    
    435000   301.70988      0.0435         1.8041935     -66805.509      68.006982     -6002.5645    
    440000   305.17714      0.044          1.8141738     -66809.869      68.039568     -5938.7195    
    445000   299.41399      0.0445         1.8726182     -66803.373      68.072154     -6310.337     
    450000   301.94349      0.045          1.8538974     -66810.932      68.10474      -6064.4616    
    455000   297.37725      0.0455         1.9221783     -66809.838      68.137326     -6555.9637    
    460000   299.36609      0.046          1.9042153     -66803.574      68.169912     -6104.8706    
    465000   299.94267      0.0465         1.9360767     -66800.605      68.202498     -6431.4146    
    470000   301.91375      0.047          1.976234      -66794.023      68.235084     -6694.7987    
    475000   297.07307      0.0475         1.9953443     -66792.642      68.26767      -6687.2265    
    480000   301.3232       0.048          1.9765198     -66798.574      68.300256     -6429.8959    
    485000   298.81492      0.0485         2.0440352     -66788.262      68.332842     -6976.6333    
    490000   300.2655       0.049          2.04813       -66786.013      68.365428     -6868.1361    
    495000   298.7758       0.0495         2.0463036     -66784.093      68.398014     -6697.5591    
    500000   298.27065      0.05           2.1068661     -66774.201      68.4306       -7281.6468    
    505000   298.31611      0.0505         2.1111567     -66777.033      68.463186     -7133.5888    
    510000   299.90118      0.051          2.1357804     -66785.715      68.495772     -7141.7737    
    515000   299.25753      0.0515         2.1143834     -66782.09       68.528358     -6880.2017    
    520000   299.17529      0.052          2.1507827     -66781.429      68.560944     -7166.4406    
    525000   299.81151      0.0525         2.1604801     -66772.618      68.59353      -7376.5811    
    530000   303.23253      0.053          2.1935477     -66768.61       68.626116     -7442.7688    
    535000   299.10396      0.0535         2.1729165     -66769.99       68.658702     -6948.9579    
    540000   298.92294      0.054          2.2312759     -66763.257      68.691288     -7383.6153    
    545000   298.63377      0.0545         2.2452664     -66756.211      68.723874     -7608.7081    
    550000   302.10681      0.055          2.267748      -66763.087      68.75646      -7631.8625    
    555000   303.8636       0.0555         2.2721477     -66751.802      68.789046     -7387.6758    
    560000   298.70218      0.056          2.2711813     -66753.601      68.821632     -7271.2976    
    565000   304.61137      0.0565         2.3377847     -66758.443      68.854218     -7934.3352    
    570000   297.81623      0.057          2.3699909     -66741.177      68.886804     -8063.6274    
    575000   303.41807      0.0575         2.3622904     -66747.304      68.91939      -7931.4766    
    580000   297.07077      0.058          2.353335      -66740.915      68.951976     -7626.3168    
    585000   302.7393       0.0585         2.4120303     -66741.808      68.984562     -7957.0792    
    590000   299.13436      0.059          2.4187077     -66745.164      69.017148     -8165.3584    
    595000   300.71667      0.0595         2.4508657     -66738.707      69.049734     -8170.6791    
    600000   299.61003      0.06           2.4486777     -66738.167      69.08232      -8059.1501    
    605000   299.59558      0.0605         2.4902276     -66739.371      69.114906     -8512.5629    
    610000   299.19518      0.061          2.4606009     -66736.923      69.147492     -8217.1294    
    615000   300.10807      0.0615         2.4947244     -66735.018      69.180078     -8180.7944    
    620000   303.24658      0.062          2.5049252     -66724.61       69.212664     -8093.9647    
    625000   300.17544      0.0625         2.5955061     -66721.497      69.24525      -8894.6397    
    630000   296.25752      0.063          2.6449203     -66721.127      69.277836     -9215.329     
    635000   300.44563      0.0635         2.6067487     -66717.776      69.310422     -8567.6597    
    640000   301.22162      0.064          2.5585142     -66719.654      69.343008     -8273.1185    
    645000   298.88954      0.0645         2.5643579     -66717.483      69.375594     -8091.6781    
    650000   301.89192      0.065          2.6763921     -66705.136      69.40818      -9093.9762    
    655000   297.86559      0.0655         2.6935496     -66706.584      69.440766     -9278.6095    
    660000   299.7107       0.066          2.7008096     -66703.677      69.473352     -9076.0833    
    665000   302.41077      0.0665         2.6426138     -66704.506      69.505938     -8466.3173    
    670000   299.35467      0.067          2.7131862     -66698.376      69.538524     -9097.0653    
    675000   300.85019      0.0675         2.8215309     -66702.162      69.57111      -9898.4234    
    680000   298.33484      0.068          2.8148986     -66692.386      69.603696     -9605.2349    
    685000   299.71707      0.0685         2.7703453     -66692.436      69.636282     -8838.7332    
    690000   297.96948      0.069          2.7863993     -66692.667      69.668868     -9078.1563    
    695000   300.2227       0.0695         2.8004228     -66686.521      69.701454     -9093.6066    
    700000   298.0509       0.07           2.9064975     -66691.55       69.73404      -9786.8144    
    705000   299.06579      0.0705         2.8754004     -66688.006      69.766626     -9689.863     
    710000   298.84062      0.071          2.9075143     -66682.064      69.799212     -9831.2459    
    715000   299.27654      0.0715         2.866489      -66670.829      69.831798     -9064.7781    
    720000   300.63553      0.072          2.9154756     -66668.974      69.864384     -9463.2967    
    725000   296.65322      0.0725         2.9659401     -66670.22       69.89697      -9940.3252    
    730000   300.25487      0.073          3.0284593     -66665.715      69.929556     -10487.332    
    735000   300.85741      0.0735         2.9964982     -66661.681      69.962142     -10069.769    
    740000   300.42233      0.074          2.9687029     -66655.953      69.994728     -9778.9849    
    745000   298.83198      0.0745         2.9900037     -66656.302      70.027314     -9628.4671    
    750000   300.88765      0.075          3.060858      -66650.072      70.0599       -10344.278    
    755000   297.54675      0.0755         3.1098184     -66647.312      70.092486     -10744.341    
    760000   296.72401      0.076          3.1111554     -66649.915      70.125072     -10498.782    
    765000   300.18613      0.0765         3.0396867     -66639.173      70.157658     -9912.9436    
    770000   296.89173      0.077          3.0849891     -66641.294      70.190244     -9837.9137    
    775000   296.6575       0.0775         3.1193158     -66639.455      70.22283      -10507.132    
    780000   303.80839      0.078          3.2151725     -66637.562      70.255416     -10986.4      
    785000   299.39105      0.0785         3.1983052     -66631.986      70.288002     -10540.337    
    790000   299.2618       0.079          3.2013901     -66627.123      70.320588     -10518.864    
    795000   300.62102      0.0795         3.2239162     -66624.178      70.353174     -10718.268    
    800000   303.2          0.08           3.2408577     -66620.015      70.38576      -10765.829    
    805000   298.65169      0.0805         3.2088068     -66618.492      70.418346     -10690.398    
    810000   298.95203      0.081          3.270373      -66618.71       70.450932     -10805.104    
    815000   303.73158      0.0815         3.2992475     -66607.335      70.483518     -10924.098    
    820000   301.02175      0.082          3.3498159     -66608.452      70.516104     -11417.028    
    825000   299.12924      0.0825         3.3351608     -66603.852      70.54869      -11098.862    
    830000   301.87694      0.083          3.3534204     -66602.113      70.581276     -11350.32     
    835000   300.049        0.0835         3.3801634     -66599.391      70.613862     -11297.856    
    840000   302.27645      0.084          3.3939937     -66594.969      70.646448     -11528.182    
    845000   301.05452      0.0845         3.4003791     -66588.741      70.679034     -11472.412    
    850000   298.72821      0.085          3.4450033     -66583.608      70.71162      -11557.495    
    855000   300.5452       0.0855         3.4436031     -66581.237      70.744206     -11476.159    
    860000   296.28039      0.086          3.4602665     -66571.205      70.776792     -11289.998    
    865000   298.32831      0.0865         3.4698227     -66582.284      70.809378     -11435.848    
    870000   300.42871      0.087          3.5146906     -66571.652      70.841964     -11690.535    
    875000   301.03171      0.0875         3.594348      -66563.156      70.87455      -12072.463    
    880000   299.78576      0.088          3.5937007     -66571.793      70.907136     -12128.729    
    885000   300.81423      0.0885         3.5567418     -66564.941      70.939722     -11746.606    
    890000   301.10796      0.089          3.5525224     -66569.644      70.972308     -11365.811    
    895000   300.36885      0.0895         3.5910846     -66560.702      71.004894     -11626.346    
    900000   300.25311      0.09           3.6333748     -66562.481      71.03748      -11953.507    
    905000   298.86125      0.0905         3.6801318     -66548.603      71.070066     -12511.164    
    910000   302.54098      0.091          3.6851424     -66547.649      71.102652     -12467.723    
    915000   300.08856      0.0915         3.689138      -66537.38       71.135238     -12298.83     
    920000   298.36527      0.092          3.7309132     -66534.814      71.167824     -12277.148    
    925000   297.84446      0.0925         3.7022162     -66529.762      71.20041      -12063.785    
    930000   300.91485      0.093          3.7734029     -66536.817      71.232996     -12629.281    
    935000   298.04509      0.0935         3.7791841     -66530.397      71.265582     -12580.948    
    940000   300.32535      0.094          3.8013902     -66522.605      71.298168     -12818.501    
    945000   299.45611      0.0945         3.8159304     -66523.442      71.330754     -12564.532    
    950000   298.53098      0.095          3.7850841     -66512.913      71.36334      -12380.13     
    955000   299.29104      0.0955         3.868129      -66521.683      71.395926     -13091.555    
    960000   301.26404      0.096          3.8783113     -66503.972      71.428512     -12903.227    
    965000   300.94944      0.0965         3.8720166     -66509.058      71.461098     -12894.31     
    970000   301.24217      0.097          3.9145932     -66506.076      71.493684     -13082.841    
    975000   300.69513      0.0975         3.8720682     -66496.979      71.52627      -12824.549    
    980000   298.85439      0.098          3.9636231     -66498.862      71.558856     -12970.618    
    985000   295.1359       0.0985         3.9877704     -66492.82       71.591442     -13506.734    
    990000   298.49764      0.099          3.9953164     -66479.799      71.624028     -13253.601    
    995000   302.1145       0.0995         3.9842528     -66480.195      71.656614     -13097.263    
   1000000   295.76067      0.1            4.0230624     -66483.54       71.6892       -13161.702    
   1005000   297.86318      0.1005         4.0535044     -66474.974      71.721786     -13387.501    
   1010000   304.36857      0.101          4.0949362     -66475.631      71.754372     -13881.363    
   1015000   300.72525      0.1015         4.1130218     -66465.758      71.786958     -13909.549    
   1020000   301.19954      0.102          4.0991376     -66461.747      71.819544     -13616.623    
   1025000   299.24385      0.1025         4.0760312     -66456.15       71.85213      -13268.803    
   1030000   302.20823      0.103          4.1314165     -66448.877      71.884716     -13589.793    
   1035000   300.29767      0.1035         4.2422167     -66452.347      71.917302     -14248.926    
   1040000   304.15857      0.104          4.2442096     -66450.898      71.949888     -14245.192    
   1045000   301.83832      0.1045         4.2397455     -66441.198      71.982474     -14277.359    
   1050000   301.85012      0.105          4.256799      -66435.254      72.01506      -14231.842    
   1055000   298.02111      0.1055         4.2500342     -66434.921      72.047646     -13931.34     
   1060000   300.93993      0.106          4.2912045     -66431.537      72.080232     -14185.975    
   1065000   300.40845      0.1065         4.2960972     -66422.749      72.112818     -14199.96     
   1070000   301.14929      0.107          4.3323799     -66420.692      72.145404     -14583.678    
   1075000   301.09685      0.1075         4.3326488     -66423.025      72.17799      -14392.042    
   1080000   304.69606      0.108          4.3357012     -66412.236      72.210576     -14266.594    
   1085000   297.94107      0.1085         4.3612706     -66408.049      72.243162     -14372.316    
   1090000   305.4207       0.109          4.4046328     -66400.706      72.275748     -14665.272    
   1095000   298.46616      0.1095         4.4344738     -66392.565      72.308334     -14901.841    
   1100000   303.10951      0.11           4.4455974     -66392.756      72.34092      -14745.815    
   1105000   299.41091      0.1105         4.4555508     -66386.291      72.373506     -14926.911    
   1110000   299.50843      0.111          4.5410998     -66387.719      72.406092     -15376.726    
   1115000   299.99599      0.1115         4.5126233     -66381.145      72.438678     -15105.699    
   1120000   298.59397      0.112          4.5347846     -66376.307      72.471264     -14970.471    
   1125000   301.46648      0.1125         4.4959572     -66367.499      72.50385      -14741.951    
   1130000   297.56042      0.113          4.5399641     -66369.752      72.536436     -14884.799    
   1135000   300.20119      0.1135         4.634553      -66355.72       72.569022     -15632.862    
   1140000   300.73377      0.114          4.5993652     -66347.845      72.601608     -15473.521    
   1145000   297.72272      0.1145         4.6571741     -66348.367      72.634194     -15676.923    
   1150000   301.2083       0.115          4.6453247     -66348.749      72.66678      -15582.725    
   1155000   298.48799      0.1155         4.6850465     -66338.607      72.699366     -15674.562    
   1160000   300.53756      0.116          4.6661423     -66339.479      72.731952     -15551.046    
   1165000   296.47017      0.1165         4.7388611     -66339.001      72.764538     -15655.303    
   1170000   302.23471      0.117          4.7435201     -66326.464      72.797124     -15714.872    
   1175000   299.62127      0.1175         4.7476461     -66324.959      72.82971      -15785.161    
   1180000   300.75733      0.118          4.7676439     -66322.137      72.862296     -15983.683    
   1185000   299.53648      0.1185         4.8317865     -66312.52       72.894882     -16410.949    
   1190000   299.0736       0.119          4.8584973     -66317.203      72.927468     -16571.869    
   1195000   299.5228       0.1195         4.8756726     -66305.257      72.960054     -16577.797    
   1200000   301.14873      0.12           4.8546859     -66292.161      72.99264      -16294.939    
   1205000   301.63206      0.1205         4.8456695     -66288.616      73.025226     -15886.621    
   1210000   299.47495      0.121          4.8371802     -66294.947      73.057812     -15526.04     
   1215000   301.51418      0.1215         4.9141624     -66297.128      73.090398     -16261.772    
   1220000   299.62974      0.122          4.9189709     -66287.021      73.122984     -16351.667    
   1225000   299.40859      0.1225         4.9312921     -66280.679      73.15557      -16495.031    
   1230000   300.50802      0.123          4.99869       -66267.9        73.188156     -16838.578    
   1235000   300.49527      0.1235         5.0721329     -66263.242      73.220742     -17476.871    
   1240000   297.7981       0.124          5.0317662     -66261.79       73.253328     -16764.2      
   1245000   301.40251      0.1245         5.0245231     -66267.652      73.285914     -16623.17     
   1250000   297.73122      0.125          5.053014      -66249.482      73.3185       -16796.825    
   1255000   300.25938      0.1255         5.0190062     -66251.033      73.351086     -16238.336    
   1260000   299.16006      0.126          5.0531908     -66243.322      73.383672     -16510.25     
   1265000   302.41554      0.1265         5.0967663     -66236.989      73.416258     -16793.595    
   1270000   300.3661       0.127          5.1517005     -66227.186      73.448844     -17273.233    
   1275000   298.04704      0.1275         5.1741912     -66226.283      73.48143      -17405.528    
   1280000   300.11643      0.128          5.229288      -66215.034      73.514016     -17709.015    
   1285000   299.24429      0.1285         5.2115564     -66218.556      73.546602     -17413.504    
   1290000   302.60534      0.129          5.2032555     -66218.698      73.579188     -17330.482    
   1295000   300.40208      0.1295         5.221436      -66211.723      73.611774     -17103.175    
   1300000   300.26595      0.13           5.2366717     -66198.519      73.64436      -17377.889    
   1305000   300.34946      0.1305         5.2192564     -66189.991      73.676946     -17285.639    
   1310000   299.16753      0.131          5.3116334     -66196.333      73.709532     -17932.873    
   1315000   301.54537      0.1315         5.3626223     -66186.382      73.742118     -18372.444    
   1320000   299.52647      0.132          5.3822222     -66184.481      73.774704     -18354.526    
   1325000   300.30154      0.1325         5.3204506     -66173.847      73.80729      -17717.164    
   1330000   301.81977      0.133          5.3999034     -66173.56       73.839876     -18125.954    
   1335000   300.78464      0.1335         5.3962747     -66170.614      73.872462     -17998.355    
   1340000   299.50311      0.134          5.4042947     -66173.695      73.905048     -18209.084    
   1345000   301.67933      0.1345         5.4171666     -66155.94       73.937634     -17986.143    
   1350000   297.47649      0.135          5.4804541     -66147.283      73.97022      -18225.384    
   1355000   298.22264      0.1355         5.4705493     -66150.902      74.002806     -18174.623    
   1360000   299.60641      0.136          5.5160589     -66134.628      74.035392     -18243.705    
   1365000   300.54874      0.1365         5.5219496     -66130.902      74.067978     -18441.135    
   1370000   297.01935      0.137          5.5498898     -66132.501      74.100564     -18407.416    
   1375000   298.15897      0.1375         5.5456448     -66134.511      74.13315      -18397.9      
   1380000   300.93726      0.138          5.5646293     -66118.582      74.165736     -18525.365    
   1385000   299.67492      0.1385         5.6120051     -66111.802      74.198322     -18630.764    
   1390000   304.50631      0.139          5.6372796     -66114.129      74.230908     -18923.081    
   1395000   299.29382      0.1395         5.645293      -66101.198      74.263494     -18922.15     
   1400000   302.30373      0.14           5.660107      -66102.544      74.29608      -18812.512    
   1405000   302.60851      0.1405         5.6860125     -66093.565      74.328666     -18842.228    
   1410000   299.01745      0.141          5.7169329     -66084.024      74.361252     -18982.084    
   1415000   297.61735      0.1415         5.6997161     -66081.208      74.393838     -18954.118    
   1420000   297.94859      0.142          5.735663      -66069.345      74.426424     -18998.081    
   1425000   300.49047      0.1425         5.7854507     -66070.684      74.45901      -19344.587    
   1430000   299.47225      0.143          5.7630708     -66059.665      74.491596     -18983.197    
   1435000   293.93833      0.1435         5.8352735     -66057.029      74.524182     -19509.238    
   1440000   302.81275      0.144          5.836395      -66054.175      74.556768     -19569.544    
   1445000   298.58138      0.1445         5.7869239     -66052.105      74.589354     -19083.36     
   1450000   299.10984      0.145          5.8972171     -66039.493      74.62194      -19706.967    
   1455000   302.95265      0.1455         5.8823103     -66037.183      74.654526     -19667.952    
   1460000   299.02204      0.146          5.9025076     -66031.671      74.687112     -19690.816    
   1465000   303.64701      0.1465         5.8860735     -66022.558      74.719698     -19690.924    
   1470000   298.58089      0.147          5.9286646     -66018.286      74.752284     -19730.494    
   1475000   301.39405      0.1475         5.9439776     -66018.408      74.78487      -19645.222    
   1480000   300.69158      0.148          5.9624463     -66011.816      74.817456     -19933.496    
   1485000   304.5616       0.1485         5.9505887     -66003.928      74.850042     -19648.416    
   1490000   302.96395      0.149          6.0349206     -65996.405      74.882628     -20125.028    
   1495000   302.55158      0.1495         6.0368652     -65993.936      74.915214     -20143.295    
   1500000   297.25801      0.15           6.0734786     -65991.613      74.9478       -20263.785    
   1505000   300.1752       0.1505         6.0484947     -65986.606      74.980386     -20353.285    
   1510000   300.63411      0.151          6.1247869     -65978.412      75.012972     -20647.869    
   1515000   298.50031      0.1515         6.0406734     -65970.852      75.045558     -20215.322    
   1520000   299.58958      0.152          6.1443576     -65961.381      75.078144     -20753.466    
   1525000   299.85813      0.1525         6.1221449     -65957.691      75.11073      -20402.095    
   1530000   299.95081      0.153          6.1322993     -65951.954      75.143316     -20360.281    
   1535000   300.52514      0.1535         6.1521954     -65950.226      75.175902     -20530.407    
   1540000   300.04282      0.154          6.0873001     -65942.924      75.208488     -20032.051    
   1545000   301.95974      0.1545         6.1463429     -65940.083      75.241074     -20377.732    
   1550000   299.81363      0.155          6.1343139     -65924.234      75.27366      -20349.756    
   1555000   303.25331      0.1555         6.1974119     -65926.337      75.306246     -20706.016    
   1560000   300.72331      0.156          6.1325094     -65918.006      75.338832     -20205.739    
   1565000   299.75687      0.1565         6.2274822     -65911.203      75.371418     -20515.07     
   1570000   301.04618      0.157          6.2511771     -65911.236      75.404004     -20868.9      
   1575000   303.81485      0.1575         6.2856292     -65902.313      75.43659      -20913.732    
   1580000   298.4743       0.158          6.3181416     -65899.59       75.469176     -21018.834    
   1585000   294.69657      0.1585         6.3293571     -65888.937      75.501762     -21225.996    
   1590000   303.48662      0.159          6.329614      -65889.878      75.534348     -21199.765    
   1595000   300.03612      0.1595         6.3612307     -65882.104      75.566934     -21256.134    
   1600000   298.63977      0.16           6.4531802     -65868.327      75.59952      -21820.803    
   1605000   299.03704      0.1605         6.3656771     -65867.903      75.632106     -21418.942    
   1610000   299.21581      0.161          6.4162535     -65856.092      75.664692     -21736.54     
   1615000   297.59969      0.1615         6.4916543     -65853.113      75.697278     -21799.654    
   1620000   297.44779      0.162          6.4847129     -65846.5        75.729864     -21595.91     
   1625000   304.22417      0.1625         6.4500345     -65843.799      75.76245      -21534.883    
   1630000   301.28893      0.163          6.4518982     -65843.773      75.795036     -21456.007    
   1635000   303.81222      0.1635         6.466695      -65830.071      75.827622     -21568.578    
   1640000   297.87767      0.164          6.5408775     -65827.209      75.860208     -22008.692    
   1645000   302.69061      0.1645         6.5231752     -65817.299      75.892794     -21671.471    
   1650000   298.43103      0.165          6.5018898     -65812.566      75.92538      -21436.382    
   1655000   298.90391      0.1655         6.4793269     -65807.603      75.957966     -21466.532    
   1660000   301.37401      0.166          6.5149514     -65794.147      75.990552     -21405.244    
   1665000   300.26132      0.1665         6.5533158     -65796.502      76.023138     -21725.183    
   1670000   300.09696      0.167          6.5806251     -65794.213      76.055724     -21854.47     
   1675000   300.02015      0.1675         6.6325999     -65790.317      76.08831      -22238.431    
   1680000   299.67712      0.168          6.6475701     -65780.675      76.120896     -22164.018    
   1685000   301.85485      0.1685         6.6523689     -65773.043      76.153482     -22068.666    
   1690000   300.23296      0.169          6.6511567     -65766.997      76.186068     -21778.981    
   1695000   301.36966      0.1695         6.6853942     -65756.607      76.218654     -22050.683    
   1700000   301.09918      0.17           6.7719386     -65745.663      76.25124      -22704.403    
   1705000   299.28862      0.1705         6.7147339     -65749.188      76.283826     -22131.824    
   1710000   297.20071      0.171          6.7619427     -65743.071      76.316412     -22561.136    
   1715000   299.54655      0.1715         6.7966712     -65732.704      76.348998     -22859.926    
   1720000   302.96268      0.172          6.8057588     -65729.541      76.381584     -22749.51     
   1725000   300.51284      0.1725         6.8804126     -65721.805      76.41417      -23351.987    
   1730000   300.64189      0.173          6.8941547     -65714.965      76.446756     -23093.684    
   1735000   300.87955      0.1735         6.9092308     -65706.949      76.479342     -22985.265    
   1740000   298.84773      0.174          6.8718775     -65700.268      76.511928     -22801.856    
   1745000   303.32292      0.1745         6.9621246     -65691.963      76.544514     -23275.801    
   1750000   301.68435      0.175          6.9447448     -65689.018      76.5771       -23286.952    
   1755000   302.42459      0.1755         6.9805078     -65674.41       76.609686     -23411.976    
   1760000   298.10229      0.176          7.0584543     -65680.566      76.642272     -23548.959    
   1765000   296.93969      0.1765         7.0011308     -65668.525      76.674858     -23561.843    
   1770000   302.03114      0.177          7.0278857     -65664.342      76.707444     -23316.958    
   1775000   300.89929      0.1775         7.0336405     -65657.791      76.74003      -23659.734    
   1780000   301.2504       0.178          7.0247944     -65655.167      76.772616     -23480.165    
   1785000   300.3126       0.1785         7.0169599     -65649.666      76.805202     -23294.18     
   1790000   301.78408      0.179          7.0865412     -65635.944      76.837788     -23504.546    
   1795000   305.56632      0.1795         7.0478996     -65640.246      76.870374     -23294.342    
   1800000   302.07785      0.18           7.1375257     -65628.006      76.90296      -23841.492    
   1805000   303.0262       0.1805         7.0979868     -65615.044      76.935546     -23523.328    
   1810000   299.77856      0.181          7.1490522     -65611.28       76.968132     -23973.104    
   1815000   299.09992      0.1815         7.11888       -65615.263      77.000718     -23637.699    
   1820000   302.12294      0.182          7.2172199     -65603.561      77.033304     -24157.316    
   1825000   300.66257      0.1825         7.090007      -65600.796      77.06589      -23520.219    
   1830000   301.47226      0.183          7.1784447     -65602.588      77.098476     -24002.556    
   1835000   298.99087      0.1835         7.2393758     -65603.73       77.131062     -24472.69     
   1840000   300.19711      0.184          7.2017334     -65580.881      77.163648     -24304.247    
   1845000   298.60309      0.1845         7.1784835     -65579.099      77.196234     -23899.6      
   1850000   301.85458      0.185          7.2438148     -65574.417      77.22882      -23929.271    
   1855000   300.46311      0.1855         7.253456      -65566.274      77.261406     -24077.562    
   1860000   297.42711      0.186          7.2930496     -65559.299      77.293992     -24329.558    
   1865000   304.575        0.1865         7.2062144     -65548.605      77.326578     -23903.809    
   1870000   301.32746      0.187          7.2520077     -65558.108      77.359164     -24098.507    
   1875000   301.08563      0.1875         7.2669747     -65543.856      77.39175      -23968.289    
   1880000   301.97231      0.188          7.2526036     -65540.284      77.424336     -24073.818    
   1885000   303.614        0.1885         7.2537454     -65538.703      77.456922     -24179.944    
   1890000   297.24314      0.189          7.3079903     -65533.485      77.489508     -24587.618    
   1895000   300.47277      0.1895         7.3331943     -65526.579      77.522094     -24727.068    
   1900000   303.31839      0.19           7.2991771     -65514.163      77.55468      -24376.187    
   1905000   298.92446      0.1905         7.3078935     -65517.43       77.587266     -24515.248    
   1910000   300.62716      0.191          7.3697657     -65513.658      77.619852     -24815.313    
   1915000   297.52901      0.1915         7.2999511     -65507.226      77.652438     -24494.033    
   1920000   303.79188      0.192          7.3390718     -65499.362      77.685024     -24588.288    
   1925000   299.41254      0.1925         7.3943314     -65490.831      77.71761      -24785.874    
   1930000   296.52883      0.193          7.3336728     -65491.115      77.750196     -24783.296    
   1935000   298.61642      0.1935         7.3804351     -65484.05       77.782782     -24871.258    
   1940000   296.50564      0.194          7.423197      -65480.175      77.815368     -25125.742    
   1945000   296.70922      0.1945         7.3822033     -65484.362      77.847954     -24792.422    
   1950000   301.30302      0.195          7.3907124     -65471.732      77.88054      -24817.312    
   1955000   298.20385      0.1955         7.3593753     -65472.504      77.913126     -24784.78     
   1960000   301.24081      0.196          7.2981164     -65469.764      77.945712     -24191.207    
   1965000   302.23727      0.1965         7.3001683     -65466.156      77.978298     -24303.807    
   1970000   298.89936      0.197          7.2792363     -65467.675      78.010884     -23888.311    
   1975000   298.16271      0.1975         7.2943931     -65464.615      78.04347      -24402.469    
   1980000   303.47934      0.198          7.2678084     -65466.068      78.076056     -24032.378    
   1985000   297.90364      0.1985         7.2609157     -65458.306      78.108642     -24368.149    
   1990000   305.00168      0.199          7.3082123     -65462.026      78.141228     -24439.245    
   1995000   300.31181      0.1995         7.3252556     -65444.443      78.173814     -24484.173    
   2000000   297.68631      0.2            7.2850373     -65456.17       78.2064       -24318.861    
Loop time of 69994.6 on 1 procs for 2000000 steps with 14748 atoms

Performance: 2.469 ns/day, 9.721 hours/ns, 28.574 timesteps/s, 421.404 katom-step/s
94.5% CPU use with 1 MPI tasks x 1 OpenMP threads

MPI task timing breakdown:
Section |  min time  |  avg time  |  max time  |%varavg| %total
---------------------------------------------------------------
Pair    | 68608      | 68608      | 68608      |   0.0 | 98.02
Neigh   | 266.72     | 266.72     | 266.72     |   0.0 |  0.38
Comm    | 26.925     | 26.925     | 26.925     |   0.0 |  0.04
Output  | 0.043739   | 0.043739   | 0.043739   |   0.0 |  0.00
Modify  | 969.46     | 969.46     | 969.46     |   0.0 |  1.39
Other   |            | 123.3      |            |       |  0.18

Nlocal:          14748 ave       14748 max       14748 min
Histogram: 1 0 0 0 0 0 0 0 0 0
Nghost:           2047 ave        2047 max        2047 min
Histogram: 1 0 0 0 0 0 0 0 0 0
Neighs:              0 ave           0 max           0 min
Histogram: 1 0 0 0 0 0 0 0 0 0
FullNghs:       409058 ave      409058 max      409058 min
Histogram: 1 0 0 0 0 0 0 0 0 0

Total # of neighbors = 409058
Ave neighs/atom = 27.736507
Neighbor list builds = 13520
Dangerous builds = 0
DONE RAD=7 RATE=0.0001 atoms=14748 finalstrain=0.2000000000000000111
Total wall time: 19:42:23
