LAMMPS (7 Feb 2024 - Update 1)
OMP_NUM_THREADS environment is not set. Defaulting to 1 thread. (src/comm.cpp:98)
  using 1 OpenMP thread(s) per MPI task
Lattice spacing in x,y,z = 5.431 5.431 5.431
Created orthogonal box = (-81.465 -81.465 0) to (81.465 81.465 65.172)
  1 by 1 by 1 MPI processor grid
Created 30252 atoms
  using lattice units in orthogonal box = (-81.481293 -81.481293 0) to (81.481293 81.481293 65.172)
  create_atoms CPU = 0.008 seconds
Reading tersoff potential file Si.tersoff with DATE: 2007-10-25
Neighbor list info ...
  update: every = 1 steps, delay = 0 steps, check = yes
  max neighbors/atom: 2000, page size: 100000
  master list distance cutoff = 5.2
  ghost atom cutoff = 5.2
  binsize = 2.6, bins = 63 63 26
  1 neighbor lists, perpetual/occasional/extra = 1 0 0
  (1) pair tersoff, perpetual
      attributes: full, newton on
      pair build: full/bin/atomonly
      stencil: full/bin/3d
      bin: standard
Setting up cg style minimization ...
  Unit style    : metal
  Current step  : 0
Per MPI rank memory allocation (min/avg/max) = 15.21 | 15.21 | 15.21 Mbytes
   Step          Temp          E_pair         E_mol          TotEng         Press          Volume    
         0   0             -137654.71      0             -137654.71     -1511.4146      769380.52    
        24   0             -137668.28      0             -137668.28     -90.630177      769380.52    
Loop time of 3.46416 on 1 procs for 24 steps with 30252 atoms

100.0% CPU use with 1 MPI tasks x 1 OpenMP threads

Minimization stats:
  Stopping criterion = energy tolerance
  Energy initial, next-to-last, final = 
     -137654.705097166  -137668.281596338  -137668.282938006
  Force two-norm initial, final = 17.811005 0.13821401
  Force max component initial, final = 0.4601903 0.0025654827
  Final line search alpha, max atom move = 1 0.0025654827
  Iterations, force evaluations = 24 48

MPI task timing breakdown:
Section |  min time  |  avg time  |  max time  |%varavg| %total
---------------------------------------------------------------
Pair    | 3.4253     | 3.4253     | 3.4253     |   0.0 | 98.88
Neigh   | 0          | 0          | 0          |   0.0 |  0.00
Comm    | 0.0018079  | 0.0018079  | 0.0018079  |   0.0 |  0.05
Output  | 0          | 0          | 0          |   0.0 |  0.00
Modify  | 0          | 0          | 0          |   0.0 |  0.00
Other   |            | 0.03708    |            |       |  1.07

Nlocal:          30252 ave       30252 max       30252 min
Histogram: 1 0 0 0 0 0 0 0 0 0
Nghost:           4409 ave        4409 max        4409 min
Histogram: 1 0 0 0 0 0 0 0 0 0
Neighs:              0 ave           0 max           0 min
Histogram: 1 0 0 0 0 0 0 0 0 0
FullNghs:       816144 ave      816144 max      816144 min
Histogram: 1 0 0 0 0 0 0 0 0 0

Total # of neighbors = 816144
Ave neighs/atom = 26.978183
Neighbor list builds = 0
Dangerous builds = 0
Setting up Verlet run ...
  Unit style    : metal
  Current step  : 0
  Time step     : 0.001
Per MPI rank memory allocation (min/avg/max) = 11.84 | 11.84 | 11.84 Mbytes
   Step          Temp          PotEng         Press           Pzz             Lz      
         0   300           -137668.28      1543.7878      1481.2258      65.172       
      1000   304.54613     -137143.49      235.90512     -311.01443      65.172       
      2000   299.90593     -137476.18     -1217.2497     -1913.9733      65.172       
      3000   300.58371     -137580.64     -27.403734     -911.8338       65.172       
      4000   297.81167     -137602.86     -1022.9275     -2091.1339      65.172       
      5000   297.20931     -137629.02     -294.4814      -1470.0939      65.172       
      6000   299.74393     -137624.47     -376.69171     -1638.5911      65.172       
      7000   299.72384     -137653.44     -759.60046     -1863.1632      65.172       
      8000   301.3016      -137645.58     -137.38491     -1409.4373      65.172       
      9000   297.1501      -137653.17     -1467.1536     -2670.4542      65.172       
     10000   300.54514     -137649.1       108.79913     -1165.8159      65.172       
     11000   298.4756      -137655        -1602.8914     -2726.7378      65.172       
     12000   299.91394     -137655.6       223.73811     -1200.5481      65.172       
     13000   298.60477     -137658.82     -1500.7718     -2562.0214      65.172       
     14000   300.7972      -137663.65      327.5583      -1016.7802      65.172       
     15000   301.12399     -137666.49     -1233.7526     -2291.2325      65.172       
     16000   299.7476      -137670.33     -97.868641     -1305.5115      65.172       
     17000   301.74339     -137661.76     -947.78714     -2245.2045      65.172       
     18000   301.22917     -137667.75     -418.79905     -1672.0609      65.172       
     19000   300.09304     -137667.26     -681.42104     -1899.0824      65.172       
     20000   300.34307     -137676.15     -814.87658     -2058.1249      65.172       
     21000   303.5247      -137657.2      -238.00173     -1589.1682      65.172       
     22000   301.12564     -137676.77     -1155.3789     -2310.6229      65.172       
     23000   301.80738     -137667.47      48.229437     -1257.8771      65.172       
     24000   299.89902     -137671.7      -1316.4766     -2545.3258      65.172       
     25000   300.87418     -137669.47      101.13933     -1098.2165      65.172       
     26000   296.71044     -137680.68     -1420.0839     -2620.1745      65.172       
     27000   301.43423     -137672.32      43.627619     -1399.2091      65.172       
     28000   298.53062     -137679.32     -1207.3902     -2330.4364      65.172       
     29000   302.17248     -137673.71      58.727146     -1243.8332      65.172       
     30000   299.43039     -137678.65     -1189.3179     -2334.1201      65.172       
Loop time of 2335.83 on 1 procs for 30000 steps with 30252 atoms

Performance: 1.110 ns/day, 21.628 hours/ns, 12.843 timesteps/s, 388.538 katom-step/s
100.0% CPU use with 1 MPI tasks x 1 OpenMP threads

MPI task timing breakdown:
Section |  min time  |  avg time  |  max time  |%varavg| %total
---------------------------------------------------------------
Pair    | 2299.8     | 2299.8     | 2299.8     |   0.0 | 98.46
Neigh   | 9.5426     | 9.5426     | 9.5426     |   0.0 |  0.41
Comm    | 1.374      | 1.374      | 1.374      |   0.0 |  0.06
Output  | 0.0081381  | 0.0081381  | 0.0081381  |   0.0 |  0.00
Modify  | 18.548     | 18.548     | 18.548     |   0.0 |  0.79
Other   |            | 6.59       |            |       |  0.28

Nlocal:          30252 ave       30252 max       30252 min
Histogram: 1 0 0 0 0 0 0 0 0 0
Nghost:           4497 ave        4497 max        4497 min
Histogram: 1 0 0 0 0 0 0 0 0 0
Neighs:              0 ave           0 max           0 min
Histogram: 1 0 0 0 0 0 0 0 0 0
FullNghs:       833220 ave      833220 max      833220 min
Histogram: 1 0 0 0 0 0 0 0 0 0

Total # of neighbors = 833220
Ave neighs/atom = 27.542642
Neighbor list builds = 248
Dangerous builds = 0
Setting up Verlet run ...
  Unit style    : metal
  Current step  : 0
  Time step     : 0.001
Per MPI rank memory allocation (min/avg/max) = 11.86 | 11.86 | 11.86 Mbytes
   Step          Temp         v_strain     v_stress_GPa      PotEng           Lz           Press     
         0   299.43039      0              0.23392047    -137678.65      65.172        -1191.9086    
      5000   303.11619      0.005          0.40517034    -137672.41      65.49786      -1718.124     
     10000   300.55728      0.01           0.48239246    -137663.39      65.82372      -1055.2772    
     15000   300.20372      0.015          0.7614003     -137641.71      66.14958      -2667.843     
     20000   301.06869      0.02           0.97789071    -137639.6       66.47544      -3682.461     
     25000   300.6181       0.025          1.100001      -137607.64      66.8013       -3519.1388    
     30000   301.55021      0.03           1.2712475     -137581.52      67.12716      -3834.8143    
     35000   302.48939      0.035          1.5601268     -137544.74      67.45302      -5458.8459    
     40000   298.62557      0.04           1.7578032     -137510.88      67.77888      -6003.0466    
     45000   296.7083       0.045          1.8678717     -137468.63      68.10474      -5883.2016    
     50000   301.55178      0.05           2.1391096     -137405.02      68.4306       -7114.4769    
     55000   300.15319      0.055          2.3841918     -137359.93      68.75646      -8197.5678    
     60000   298.30373      0.06           2.5414061     -137310.86      69.08232      -8420.4947    
     65000   299.84533      0.065          2.7246182     -137259.62      69.40818      -8748.8038    
     70000   299.94353      0.07           2.9862656     -137185.14      69.73404      -9994.1244    
     75000   299.40362      0.075          3.2255722     -137119.96      70.0599       -11148.047    
     80000   298.94555      0.08           3.4166341     -137043.82      70.38576      -11459.71     
     85000   303.37299      0.085          3.592231      -136961.16      70.71162      -11790.308    
     90000   301.35468      0.09           3.8379618     -136887.5       71.03748      -12745.435    
     95000   297.94395      0.095          4.0876546     -136802.73      71.36334      -13681.776    
    100000   300.51592      0.1            4.2728851     -136726.35      71.6892       -14327.53     
    105000   300.6345       0.105          4.5046301     -136617.36      72.01506      -14894.687    
    110000   300.59259      0.11           4.7409982     -136517.88      72.34092      -15488.372    
    115000   297.42052      0.115          4.9616228     -136412.49      72.66678      -16554.364    
    120000   301.18553      0.12           5.2149972     -136306.24      72.99264      -17750.016    
    125000   298.64087      0.125          5.434046      -136189.68      73.3185       -18319.503    
    130000   300.65074      0.13           5.6060421     -136079.04      73.64436      -18434.642    
    135000   299.37525      0.135          5.8086205     -135963.21      73.97022      -19047.354    
    140000   299.99149      0.14           6.0947669     -135836.8       74.29608      -20292.69     
    145000   299.40618      0.145          6.3230343     -135716.39      74.62194      -21299.389    
    150000   300.98321      0.15           6.551463      -135589.46      74.9478       -21990.405    
    155000   298.6152       0.155          6.7757776     -135436.41      75.27366      -22609.937    
    160000   300.26221      0.16           6.9717467     -135307.51      75.59952      -22948.307    
    165000   299.33173      0.165          7.2085883     -135169.65      75.92538      -23646.172    
    170000   300.25469      0.17           7.483691      -135013.65      76.25124      -24841.621    
    175000   300.0721       0.175          7.6432224     -134863.81      76.5771       -25435.05     
    180000   299.02424      0.18           7.8273303     -134721.69      76.90296      -26069.322    
    185000   300.8121       0.185          8.0879997     -134571.92      77.22882      -27011.83     
    190000   297.51497      0.19           8.2810234     -134425.19      77.55468      -27678.405    
    195000   300.01297      0.195          8.5320341     -134251.19      77.88054      -28483.583    
    200000   299.79043      0.2            8.7171635     -134085.2       78.2064       -29141.123    
Loop time of 16800.9 on 1 procs for 200000 steps with 30252 atoms

Performance: 1.029 ns/day, 23.335 hours/ns, 11.904 timesteps/s, 360.124 katom-step/s
99.6% CPU use with 1 MPI tasks x 1 OpenMP threads

MPI task timing breakdown:
Section |  min time  |  avg time  |  max time  |%varavg| %total
---------------------------------------------------------------
Pair    | 16440      | 16440      | 16440      |   0.0 | 97.85
Neigh   | 64.134     | 64.134     | 64.134     |   0.0 |  0.38
Comm    | 7.7327     | 7.7327     | 7.7327     |   0.0 |  0.05
Output  | 0.039166   | 0.039166   | 0.039166   |   0.0 |  0.00
Modify  | 243.7      | 243.7      | 243.7      |   0.0 |  1.45
Other   |            | 44.9       |            |       |  0.27

Nlocal:          30252 ave       30252 max       30252 min
Histogram: 1 0 0 0 0 0 0 0 0 0
Nghost:           4221 ave        4221 max        4221 min
Histogram: 1 0 0 0 0 0 0 0 0 0
Neighs:              0 ave           0 max           0 min
Histogram: 1 0 0 0 0 0 0 0 0 0
FullNghs:       858648 ave      858648 max      858648 min
Histogram: 1 0 0 0 0 0 0 0 0 0

Total # of neighbors = 858648
Ave neighs/atom = 28.383181
Neighbor list builds = 1482
Dangerous builds = 0
DONE RAD=10 RATE=0.001 atoms=30252 finalstrain=0.2000000000000000111
Total wall time: 5:19:00
