LAMMPS (7 Feb 2024 - Update 1)
OMP_NUM_THREADS environment is not set. Defaulting to 1 thread. (src/comm.cpp:98)
  using 1 OpenMP thread(s) per MPI task
Lattice spacing in x,y,z = 5.431 5.431 5.431
Created orthogonal box = (-81.465 -81.465 0) to (81.465 81.465 65.172)
  1 by 1 by 1 MPI processor grid
Created 7596 atoms
  using lattice units in orthogonal box = (-81.481293 -81.481293 0) to (81.481293 81.481293 65.172)
  create_atoms CPU = 0.003 seconds
Reading tersoff potential file Si.tersoff with DATE: 2007-10-25
Neighbor list info ...
  update: every = 1 steps, delay = 0 steps, check = yes
  max neighbors/atom: 2000, page size: 100000
  master list distance cutoff = 5.2
  ghost atom cutoff = 5.2
  binsize = 2.6, bins = 63 63 26
  1 neighbor lists, perpetual/occasional/extra = 1 0 0
  (1) pair tersoff, perpetual
      attributes: full, newton on
      pair build: full/bin/atomonly
      stencil: full/bin/3d
      bin: standard
Setting up cg style minimization ...
  Unit style    : metal
  Current step  : 0
Per MPI rank memory allocation (min/avg/max) = 5.146 | 5.146 | 5.146 Mbytes
   Step          Temp          E_pair         E_mol          TotEng         Press          Volume    
         0   0             -33928.969      0             -33928.969     -3087.6223      192460.52    
        30   0             -33935.745      0             -33935.745     -100.89585      192460.52    
Loop time of 0.898644 on 1 procs for 30 steps with 7596 atoms

101.7% CPU use with 1 MPI tasks x 1 OpenMP threads

Minimization stats:
  Stopping criterion = energy tolerance
  Energy initial, next-to-last, final = 
     -33928.9686753943  -33935.7442903053  -33935.7446203512
  Force two-norm initial, final = 12.697613 0.07047148
  Force max component initial, final = 0.4601903 0.0025199295
  Final line search alpha, max atom move = 1 0.0025199295
  Iterations, force evaluations = 30 60

MPI task timing breakdown:
Section |  min time  |  avg time  |  max time  |%varavg| %total
---------------------------------------------------------------
Pair    | 0.88986    | 0.88986    | 0.88986    |   0.0 | 99.02
Neigh   | 0          | 0          | 0          |   0.0 |  0.00
Comm    | 0.00053131 | 0.00053131 | 0.00053131 |   0.0 |  0.06
Output  | 0          | 0          | 0          |   0.0 |  0.00
Modify  | 0          | 0          | 0          |   0.0 |  0.00
Other   |            | 0.008253   |            |       |  0.92

Nlocal:           7596 ave        7596 max        7596 min
Histogram: 1 0 0 0 0 0 0 0 0 0
Nghost:           1105 ave        1105 max        1105 min
Histogram: 1 0 0 0 0 0 0 0 0 0
Neighs:              0 ave           0 max           0 min
Histogram: 1 0 0 0 0 0 0 0 0 0
FullNghs:       197136 ave      197136 max      197136 min
Histogram: 1 0 0 0 0 0 0 0 0 0

Total # of neighbors = 197136
Ave neighs/atom = 25.952607
Neighbor list builds = 0
Dangerous builds = 0
Setting up Verlet run ...
  Unit style    : metal
  Current step  : 0
  Time step     : 0.001
Per MPI rank memory allocation (min/avg/max) = 4.021 | 4.021 | 4.021 Mbytes
   Step          Temp          PotEng         Press           Pzz             Lz      
         0   300           -33935.745      1546.3876      1431.0096      65.172       
      1000   315.16527     -34040.157     -1591.2573     -2947.8358      65.172       
      2000   301.62997     -34165.807     -1024.13       -2804.1352      65.172       
      3000   302.65244     -34224.58      -846.66834     -3098.1147      65.172       
      4000   297.45282     -34239.033     -663.24298     -2815.6048      65.172       
      5000   302.17345     -34249.128     -546.86108     -2927.3986      65.172       
      6000   299.04305     -34253.45      -34.341641     -2256.6734      65.172       
      7000   299.43648     -34258.082     -390.20301     -2574.2583      65.172       
      8000   301.02043     -34261.542     -882.16473     -3150.5009      65.172       
      9000   304.18359     -34260.184     -1060.8464     -3459.0653      65.172       
     10000   303.49841     -34268.268     -1690.4078     -4060.4802      65.172       
     11000   302.0764      -34262.069     -1477.5473     -3790.4006      65.172       
     12000   294.40821     -34264.139     -1957.506      -4105.6103      65.172       
     13000   303.9089      -34268.489     -1482.3476     -3983.8779      65.172       
     14000   300.48939     -34271.381     -1942.1917     -4775.035       65.172       
     15000   307.32814     -34269.031     -1481.096      -4113.0042      65.172       
     16000   298.4768      -34270.009     -1319.1776     -3714.1612      65.172       
     17000   298.83549     -34270.287     -1230.1236     -3695.5808      65.172       
     18000   295.33814     -34274.068     -1301.4936     -3958.3899      65.172       
     19000   297.92583     -34268.455     -938.16312     -3694.9536      65.172       
     20000   293.44634     -34274.753     -1211.1006     -3593.2069      65.172       
     21000   298.92285     -34272.845     -858.21022     -3402.6621      65.172       
     22000   296.36377     -34267.052     -1710.5472     -4109.9326      65.172       
     23000   304.6623      -34275.521     -1218.4255     -3844.0388      65.172       
     24000   298.29511     -34275.372     -1073.7879     -3587.7354      65.172       
     25000   303.50482     -34278.025     -1229.4284     -3928.1512      65.172       
     26000   299.15781     -34280.397     -977.52372     -3371.0998      65.172       
     27000   300.15143     -34277.308     -1203.9889     -3533.4479      65.172       
     28000   294.89523     -34280.028     -1384.5648     -3877.1576      65.172       
     29000   304.72275     -34280.633     -650.07525     -3378.6156      65.172       
     30000   303.22206     -34278.808     -1065.6715     -3497.0992      65.172       
Loop time of 520.665 on 1 procs for 30000 steps with 7596 atoms

Performance: 4.978 ns/day, 4.821 hours/ns, 57.619 timesteps/s, 437.671 katom-step/s
99.9% CPU use with 1 MPI tasks x 1 OpenMP threads

MPI task timing breakdown:
Section |  min time  |  avg time  |  max time  |%varavg| %total
---------------------------------------------------------------
Pair    | 513.49     | 513.49     | 513.49     |   0.0 | 98.62
Neigh   | 2.0233     | 2.0233     | 2.0233     |   0.0 |  0.39
Comm    | 0.2949     | 0.2949     | 0.2949     |   0.0 |  0.06
Output  | 0.002494   | 0.002494   | 0.002494   |   0.0 |  0.00
Modify  | 3.9668     | 3.9668     | 3.9668     |   0.0 |  0.76
Other   |            | 0.8849     |            |       |  0.17

Nlocal:           7596 ave        7596 max        7596 min
Histogram: 1 0 0 0 0 0 0 0 0 0
Nghost:           1149 ave        1149 max        1149 min
Histogram: 1 0 0 0 0 0 0 0 0 0
Neighs:              0 ave           0 max           0 min
Histogram: 1 0 0 0 0 0 0 0 0 0
FullNghs:       203176 ave      203176 max      203176 min
Histogram: 1 0 0 0 0 0 0 0 0 0

Total # of neighbors = 203176
Ave neighs/atom = 26.747762
Neighbor list builds = 217
Dangerous builds = 0
Setting up Verlet run ...
  Unit style    : metal
  Current step  : 0
  Time step     : 0.001
Per MPI rank memory allocation (min/avg/max) = 4.028 | 4.028 | 4.028 Mbytes
   Step          Temp         v_strain     v_stress_GPa      PotEng           Lz           Press     
         0   303.22206      0              0.34798145    -34278.808      65.172        -1060.4043    
      5000   298.01822      0.0005         0.40290475    -34281.93       65.204586     -1331.9362    
     10000   300.62337      0.001          0.37319997    -34280.678      65.237172     -886.81801    
     15000   301.51919      0.0015         0.43075348    -34286.35       65.269758     -1537.0825    
     20000   302.5369       0.002          0.42661495    -34288.332      65.302344     -1046.3411    
     25000   299.23442      0.0025         0.43663634    -34290.276      65.33493      -1248.1795    
     30000   300.70792      0.003          0.45531161    -34290.557      65.367516     -1393.7805    
     35000   302.43467      0.0035         0.50054328    -34291.298      65.400102     -1794.7205    
     40000   302.11156      0.004          0.50252716    -34286.445      65.432688     -1747.4586    
     45000   301.1906       0.0045         0.48005583    -34298.734      65.465274     -1174.2338    
     50000   306.0841       0.005          0.52524387    -34290.471      65.49786      -1862.1233    
     55000   305.26974      0.0055         0.58075188    -34292.198      65.530446     -1922.0056    
     60000   302.67416      0.006          0.5694025     -34290.473      65.563032     -2011.1352    
     65000   297.8965       0.0065         0.55898868    -34294.592      65.595618     -1738.1319    
     70000   303.35451      0.007          0.58799378    -34293.341      65.628204     -1685.4964    
     75000   299.49507      0.0075         0.5886659     -34288.457      65.66079      -1851.979     
     80000   300.30445      0.008          0.58834391    -34298.157      65.693376     -1373.2541    
     85000   302.65673      0.0085         0.68011989    -34291.769      65.725962     -2696.0815    
     90000   295.64726      0.009          0.60985552    -34294.95       65.758548     -1591.7256    
     95000   295.33202      0.0095         0.76616925    -34291.094      65.791134     -3328.6957    
    100000   296.07636      0.01           0.68355742    -34292.839      65.82372      -2440.9273    
    105000   299.29774      0.0105         0.73691583    -34295.944      65.856306     -2670.9638    
    110000   300.93526      0.011          0.69195597    -34296.331      65.888892     -2307.3374    
    115000   301.04165      0.0115         0.75829628    -34294.829      65.921478     -2553.6401    
    120000   299.64519      0.012          0.81558005    -34291.62       65.954064     -2963.831     
    125000   298.23105      0.0125         0.76543433    -34294.259      65.98665      -2548.4644    
    130000   300.60836      0.013          0.78692593    -34294.215      66.019236     -2336.1083    
    135000   297.31692      0.0135         0.87296027    -34291.19       66.051822     -3087.5254    
    140000   298.53661      0.014          0.85114468    -34291.769      66.084408     -2955.5827    
    145000   301.87339      0.0145         0.86732791    -34290.751      66.116994     -3232.0602    
    150000   294.42645      0.015          0.86129989    -34291.551      66.14958      -2822.5701    
    155000   300.60343      0.0155         0.84585073    -34300.8        66.182166     -2703.485     
    160000   302.78956      0.016          0.89785477    -34296.043      66.214752     -2930.332     
    165000   301.66546      0.0165         0.94115179    -34291.14       66.247338     -2976.837     
    170000   297.44656      0.017          0.91814131    -34297.775      66.279924     -3073.3193    
    175000   301.18629      0.0175         0.90240601    -34293.647      66.31251      -2688.8228    
    180000   298.64518      0.018          0.95594483    -34292.475      66.345096     -2885.2254    
    185000   296.78456      0.0185         0.98936302    -34294.25       66.377682     -3350.4247    
    190000   293.57952      0.019          1.0539571     -34292.531      66.410268     -3883.8544    
    195000   300.84477      0.0195         0.98754796    -34292.409      66.442854     -2877.1971    
    200000   298.05238      0.02           1.0304443     -34292.548      66.47544      -3220.6599    
    205000   299.70743      0.0205         1.0685715     -34289.747      66.508026     -3789.159     
    210000   297.29904      0.021          1.0889196     -34295.323      66.540612     -3796.5997    
    215000   296.72951      0.0215         0.97630425    -34286.859      66.573198     -2649.403     
    220000   297.57289      0.022          1.1123003     -34298.229      66.605784     -3891.4207    
    225000   298.78283      0.0225         0.98581036    -34290.595      66.63837      -2653.0754    
    230000   294.81224      0.023          1.1535381     -34287.442      66.670956     -4026.774     
    235000   299.65894      0.0235         1.0439944     -34291.959      66.703542     -3054.4021    
    240000   300.06063      0.024          1.2349416     -34284.909      66.736128     -4963.5167    
    245000   297.67272      0.0245         1.1423964     -34289.528      66.768714     -3465.4977    
    250000   303.25731      0.025          1.2161114     -34286.565      66.8013       -4126.549     
    255000   298.02681      0.0255         1.2658173     -34285.037      66.833886     -4256.8195    
    260000   294.78283      0.026          1.2237283     -34289.777      66.866472     -3731.0861    
    265000   300.95102      0.0265         1.2918477     -34285.478      66.899058     -4634.9487    
    270000   298.5151       0.027          1.2632848     -34285.524      66.931644     -4199.1312    
    275000   299.77999      0.0275         1.2943431     -34281.201      66.96423      -4110.9292    
    280000   301.32593      0.028          1.3392341     -34284.055      66.996816     -4570.064     
    285000   302.29981      0.0285         1.3613912     -34281.218      67.029402     -4580.8435    
    290000   301.4172       0.029          1.3319882     -34283.186      67.061988     -4261.9104    
    295000   299.45099      0.0295         1.3877702     -34279.635      67.094574     -4942.7218    
    300000   300.15018      0.03           1.3567789     -34280.318      67.12716      -4281.4329    
    305000   301.81083      0.0305         1.3829293     -34277.985      67.159746     -4738.823     
    310000   296.45157      0.031          1.4012996     -34280.589      67.192332     -4695.4503    
    315000   301.5584       0.0315         1.4118017     -34280.86       67.224918     -4642.8186    
    320000   297.21368      0.032          1.4124065     -34282.779      67.257504     -4438.2421    
    325000   300.32218      0.0325         1.4382991     -34277.847      67.29009      -4936.412     
    330000   302.85277      0.033          1.4817201     -34278.926      67.322676     -4990.0402    
    335000   297.23242      0.0335         1.56229       -34271.621      67.355262     -5785.5923    
    340000   298.34898      0.034          1.4493483     -34273.073      67.387848     -4727.3738    
    345000   299.12954      0.0345         1.6450657     -34274.076      67.420434     -5953.99      
    350000   302.52988      0.035          1.5256429     -34273.615      67.45302      -4826.1355    
    355000   297.47196      0.0355         1.6397788     -34274.068      67.485606     -5907.273     
    360000   296.69942      0.036          1.5871967     -34271.115      67.518192     -5046.8572    
    365000   293.83185      0.0365         1.6392828     -34271.05       67.550778     -5530.464     
    370000   303.86889      0.037          1.6313647     -34269.702      67.583364     -5154.4146    
    375000   296.35401      0.0375         1.6297248     -34266.164      67.61595      -5402.971     
    380000   300.13191      0.038          1.6532688     -34270.555      67.648536     -5426.8865    
    385000   298.00558      0.0385         1.6114052     -34266.367      67.681122     -5123.689     
    390000   299.28542      0.039          1.7123597     -34272.759      67.713708     -6112.202     
    395000   303.75796      0.0395         1.6502172     -34267.262      67.746294     -5360.7547    
    400000   302.52862      0.04           1.7624275     -34264.217      67.77888      -6074.3054    
    405000   296.34553      0.0405         1.766932      -34262.949      67.811466     -5851.6769    
    410000   298.48365      0.041          1.864496      -34267.76       67.844052     -6711.0404    
    415000   298.32835      0.0415         1.6816401     -34263.748      67.876638     -4959.9681    
    420000   301.47009      0.042          1.8914873     -34256.417      67.909224     -6957.9553    
    425000   299.87078      0.0425         1.7701865     -34262.578      67.94181      -5404.5361    
    430000   299.71769      0.043          1.9217978     -34259.749      67.974396     -6829.9915    
    435000   298.30807      0.0435         1.8474943     -34258.15       68.006982     -5901.5643    
    440000   295.15638      0.044          1.9455593     -34260.347      68.039568     -6601.9362    
    445000   301.39751      0.0445         1.941356      -34258.824      68.072154     -6156.2814    
    450000   293.13187      0.045          1.9700685     -34255.731      68.10474      -6720.4835    
    455000   297.07096      0.0455         1.9074159     -34256.034      68.137326     -6196.1367    
    460000   300.22029      0.046          1.9554523     -34256.18       68.169912     -6325.6298    
    465000   296.82132      0.0465         2.0259801     -34253.183      68.202498     -7188.1059    
    470000   299.90494      0.047          1.9854767     -34254.104      68.235084     -6601.155     
    475000   297.06804      0.0475         2.0235678     -34255.048      68.26767      -6789.5784    
    480000   301.48663      0.048          2.0267979     -34253.154      68.300256     -6669.7097    
    485000   298.22455      0.0485         2.001159      -34252.282      68.332842     -6802.2697    
    490000   302.47731      0.049          1.9956668     -34251.321      68.365428     -6599.6158    
    495000   304.76206      0.0495         2.0891603     -34249.858      68.398014     -7139.9043    
    500000   299.32838      0.05           2.1118875     -34246.861      68.4306       -6664.6008    
    505000   299.48142      0.0505         2.1214618     -34242.219      68.463186     -7037.6245    
    510000   298.68178      0.051          2.0913322     -34248.564      68.495772     -6728.6969    
    515000   298.34904      0.0515         2.2016498     -34244.908      68.528358     -7536.2097    
    520000   299.49266      0.052          2.1143722     -34249.052      68.560944     -6967.1449    
    525000   298.66037      0.0525         2.222406      -34242.977      68.59353      -7765.901     
    530000   296.39391      0.053          2.181695      -34237.984      68.626116     -7075.3742    
    535000   303.93935      0.0535         2.172549      -34237.758      68.658702     -7226.5535    
    540000   298.89154      0.054          2.2352556     -34240.442      68.691288     -7323.8136    
    545000   303.24305      0.0545         2.2238488     -34233.462      68.723874     -7680.7902    
    550000   297.17027      0.055          2.2331451     -34230.586      68.75646      -7311.6688    
    555000   297.15067      0.0555         2.3396442     -34235.011      68.789046     -7918.7412    
    560000   301.00327      0.056          2.2991735     -34239.004      68.821632     -7500.7257    
    565000   294.51852      0.0565         2.3410339     -34234.069      68.854218     -7923.3731    
    570000   299.88462      0.057          2.3139497     -34233.525      68.886804     -7695.1378    
    575000   298.81204      0.0575         2.3541746     -34229.255      68.91939      -8004.3843    
    580000   297.94724      0.058          2.4201652     -34229.633      68.951976     -8371.6463    
    585000   300.74659      0.0585         2.3692001     -34227.025      68.984562     -7694.3538    
    590000   305.05713      0.059          2.3487781     -34227.679      69.017148     -7398.9022    
    595000   297.7087       0.0595         2.4185076     -34225.466      69.049734     -8069.7139    
    600000   298.94356      0.06           2.4478768     -34224.22       69.08232      -8275.98      
    605000   301.18454      0.0605         2.4172308     -34222.07       69.114906     -7926.8452    
    610000   296.22035      0.061          2.4977773     -34228.556      69.147492     -8549.4686    
    615000   299.0694       0.0615         2.52034       -34221.849      69.180078     -8403.0513    
    620000   301.87198      0.062          2.557588      -34221.344      69.212664     -8576.4539    
    625000   299.0028       0.0625         2.4972988     -34218.61       69.24525      -7816.0707    
    630000   295.77757      0.063          2.5742604     -34218.58       69.277836     -8801.0056    
    635000   299.84829      0.0635         2.5653204     -34213.174      69.310422     -8193.0869    
    640000   295.08167      0.064          2.6805184     -34214.006      69.343008     -9370.6132    
    645000   299.38624      0.0645         2.5968383     -34215.806      69.375594     -8468.9591    
    650000   296.13983      0.065          2.6444106     -34212.901      69.40818      -8952.9759    
    655000   299.14126      0.0655         2.7077801     -34211.808      69.440766     -8909.9646    
    660000   301.63529      0.066          2.7282252     -34215.592      69.473352     -9107.3746    
    665000   296.36488      0.0665         2.7209963     -34210.025      69.505938     -8797.2395    
    670000   296.08763      0.067          2.7052186     -34208.867      69.538524     -9016.0921    
    675000   299.82282      0.0675         2.825483      -34212.4        69.57111      -9872.5267    
    680000   301.96275      0.068          2.7857121     -34205.459      69.603696     -9274.8427    
    685000   295.62368      0.0685         2.7361268     -34203.048      69.636282     -8798.5855    
    690000   301.19049      0.069          2.8179288     -34207.72       69.668868     -9679.3613    
    695000   298.71231      0.0695         2.8713663     -34200.465      69.701454     -9815.9961    
    700000   302.7856       0.07           2.8608175     -34199.513      69.73404      -9661.1975    
    705000   302.52216      0.0705         2.9383458     -34197.879      69.766626     -10050.531    
    710000   304.08228      0.071          2.8786354     -34195.367      69.799212     -9355.0707    
    715000   296.76495      0.0715         2.9364904     -34197.508      69.831798     -10035.514    
    720000   298.54155      0.072          2.8938864     -34191.646      69.864384     -9604.4242    
    725000   304.63908      0.0725         2.9182147     -34195.867      69.89697      -9840.4727    
    730000   297.82275      0.073          2.9070931     -34192.186      69.929556     -9587.7598    
    735000   292.6295       0.0735         2.9809717     -34190.205      69.962142     -9706.7881    
    740000   300.19587      0.074          3.0031922     -34189.35       69.994728     -10101.648    
    745000   296.94509      0.0745         2.9921718     -34185.059      70.027314     -9912.3018    
    750000   302.07328      0.075          3.0924046     -34189.273      70.0599       -10545.88     
    755000   299.84531      0.0755         3.0345044     -34184.404      70.092486     -10209.31     
    760000   301.26788      0.076          3.0696294     -34184.317      70.125072     -10337.815    
    765000   300.56601      0.0765         3.1439533     -34182.004      70.157658     -10843.436    
    770000   299.14676      0.077          3.0447561     -34185.086      70.190244     -10039.472    
    775000   299.02854      0.0775         3.1028705     -34181.242      70.22283      -10538.765    
    780000   306.94892      0.078          3.1504598     -34177.886      70.255416     -10657.425    
    785000   302.55803      0.0785         3.0533917     -34173.928      70.288002     -9850.2565    
    790000   305.35484      0.079          3.1340281     -34178.614      70.320588     -10510.935    
    795000   299.12416      0.0795         3.1966591     -34171.284      70.353174     -10644.84     
    800000   301.48921      0.08           3.1598026     -34169.168      70.38576      -10585.879    
    805000   300.45918      0.0805         3.2463198     -34169.304      70.418346     -10789.29     
    810000   299.69518      0.081          3.186062      -34172.064      70.450932     -10139.751    
    815000   300.53         0.0815         3.2489704     -34172.165      70.483518     -11019.763    
    820000   299.07994      0.082          3.2317549     -34169.301      70.516104     -10508.195    
    825000   302.33916      0.0825         3.3155066     -34166.777      70.54869      -11222.077    
    830000   297.06797      0.083          3.368124      -34164.996      70.581276     -11813.479    
    835000   303.85649      0.0835         3.1899871     -34162.998      70.613862     -10022.09     
    840000   301.81767      0.084          3.3729345     -34160.761      70.646448     -11613.133    
    845000   304.43462      0.0845         3.4080795     -34154.921      70.679034     -11426.799    
    850000   302.17419      0.085          3.4144444     -34161.659      70.71162      -11560.389    
    855000   299.71672      0.0855         3.4217757     -34158.432      70.744206     -11687.769    
    860000   302.74994      0.086          3.4184192     -34152.29       70.776792     -11221.765    
    865000   296.41747      0.0865         3.4151048     -34151.664      70.809378     -11502.046    
    870000   296.89825      0.087          3.473661      -34151.329      70.841964     -12155.229    
    875000   299.13117      0.0875         3.4462778     -34151.59       70.87455      -11353.872    
    880000   295.8489       0.088          3.5153654     -34146.773      70.907136     -11890.833    
    885000   299.19434      0.0885         3.5363468     -34143.172      70.939722     -11744.76     
    890000   299.50687      0.089          3.5566937     -34149.152      70.972308     -11601.642    
    895000   299.5934       0.0895         3.5675473     -34148.153      71.004894     -11723.658    
    900000   300.9838       0.09           3.6002047     -34140.549      71.03748      -12317.305    
    905000   298.83234      0.0905         3.5942703     -34139.499      71.070066     -11694.257    
    910000   297.71335      0.091          3.6006278     -34133.32       71.102652     -11951.821    
    915000   300.92265      0.0915         3.5839762     -34135.065      71.135238     -11614.279    
    920000   296.03125      0.092          3.6298804     -34135.591      71.167824     -11701.719    
    925000   300.81109      0.0925         3.6202234     -34130.816      71.20041      -11814.311    
    930000   299.06515      0.093          3.6427485     -34132.028      71.232996     -11842.481    
    935000   301.50384      0.0935         3.7596664     -34128.333      71.265582     -12616.956    
    940000   303.30698      0.094          3.7302586     -34125.575      71.298168     -12351.945    
    945000   301.31944      0.0945         3.7199734     -34122.842      71.330754     -12220.472    
    950000   301.80757      0.095          3.7837041     -34125.013      71.36334      -12859.69     
    955000   299.99854      0.0955         3.7214757     -34116.867      71.395926     -12062.773    
    960000   301.15528      0.096          3.8559284     -34115.911      71.428512     -12945.3      
    965000   300.43265      0.0965         3.8861118     -34118.672      71.461098     -13241.602    
    970000   306.26101      0.097          3.7658801     -34112.9        71.493684     -12440.453    
    975000   301.69963      0.0975         3.8577013     -34116.568      71.52627      -12749.417    
    980000   297.99064      0.098          3.951875      -34108.181      71.558856     -13210.312    
    985000   297.23179      0.0985         3.9070227     -34113.716      71.591442     -12814.034    
    990000   302.36205      0.099          3.9370498     -34105.612      71.624028     -13495.839    
    995000   299.33802      0.0995         3.906081      -34105.997      71.656614     -12997.034    
   1000000   297.73381      0.1            3.8885568     -34103.969      71.6892       -12756.633    
   1005000   300.85821      0.1005         3.9120004     -34099.978      71.721786     -12901.845    
   1010000   299.23701      0.101          3.8786197     -34101.771      71.754372     -12487.817    
   1015000   301.77473      0.1015         3.9019749     -34098.008      71.786958     -12994.286    
   1020000   304.67996      0.102          3.9497716     -34095.621      71.819544     -13503.576    
   1025000   303.03777      0.1025         3.974049      -34091.658      71.85213      -13168.83     
   1030000   301.11902      0.103          4.0970677     -34092.861      71.884716     -13782.84     
   1035000   307.37944      0.1035         4.0003914     -34092.325      71.917302     -13693.732    
   1040000   302.42651      0.104          3.9843306     -34089.24       71.949888     -13057.962    
   1045000   294.21063      0.1045         4.0308327     -34090.54       71.982474     -13362.009    
   1050000   301.89519      0.105          4.0912694     -34085.174      72.01506      -14124.563    
   1055000   298.47759      0.1055         4.048565      -34085.938      72.047646     -13477.09     
   1060000   301.91454      0.106          4.0450263     -34083.034      72.080232     -13434.232    
   1065000   299.62848      0.1065         4.0647724     -34081.106      72.112818     -13577.093    
   1070000   302.23017      0.107          4.1308515     -34081.693      72.145404     -13630.307    
   1075000   299.67506      0.1075         4.1097879     -34070.469      72.17799      -13716.424    
   1080000   297.39793      0.108          4.2021493     -34072.197      72.210576     -13986.763    
   1085000   298.6028       0.1085         4.1577093     -34069.816      72.243162     -13651.897    
   1090000   295.52364      0.109          4.3251632     -34070.576      72.275748     -14748.358    
   1095000   296.84544      0.1095         4.2357272     -34067.69       72.308334     -14123.069    
   1100000   302.24644      0.11           4.2133        -34065.328      72.34092      -13669.571    
   1105000   301.76639      0.1105         4.2397784     -34070.072      72.373506     -14378.888    
   1110000   299.20155      0.111          4.2493736     -34062.896      72.406092     -13697.036    
   1115000   297.77052      0.1115         4.3579646     -34058.824      72.438678     -14966.402    
   1120000   297.23032      0.112          4.3463116     -34055.524      72.471264     -14743.477    
   1125000   299.18111      0.1125         4.3055833     -34053.406      72.50385      -14383.957    
   1130000   299.95513      0.113          4.3127107     -34058.649      72.536436     -13923.429    
   1135000   297.6708       0.1135         4.3235928     -34058.344      72.569022     -14537.301    
   1140000   298.12982      0.114          4.4418882     -34051.037      72.601608     -15223.355    
   1145000   298.63546      0.1145         4.4446765     -34050.328      72.634194     -14618.025    
   1150000   298.90303      0.115          4.4278487     -34048.856      72.66678      -14424.667    
   1155000   303.63028      0.1155         4.4255294     -34037.944      72.699366     -14697.67     
   1160000   300.61159      0.116          4.4478264     -34044.245      72.731952     -15036.737    
   1165000   298.75069      0.1165         4.535103      -34036.767      72.764538     -15605.395    
   1170000   295.648        0.117          4.4025593     -34040.521      72.797124     -14093.232    
   1175000   297.72851      0.1175         4.4971043     -34037.021      72.82971      -14635.029    
   1180000   298.35595      0.118          4.4957773     -34035.108      72.862296     -15155.437    
   1185000   303.24298      0.1185         4.5348806     -34030.727      72.894882     -14908.951    
   1190000   298.86551      0.119          4.587504      -34031.483      72.927468     -15316.07     
   1195000   300.03493      0.1195         4.5473329     -34028.48       72.960054     -15020.685    
   1200000   301.48988      0.12           4.5724555     -34027.817      72.99264      -15102.451    
   1205000   302.31623      0.1205         4.6105752     -34023.983      73.025226     -15352.222    
   1210000   303.72897      0.121          4.6012549     -34020.715      73.057812     -15583.16     
   1215000   295.83431      0.1215         4.5953716     -34019.724      73.090398     -15369.453    
   1220000   300.79783      0.122          4.7126844     -34015.992      73.122984     -16019.994    
   1225000   301.31313      0.1225         4.6495221     -34015.532      73.15557      -15378.966    
   1230000   302.82787      0.123          4.601137      -34014.978      73.188156     -15022.151    
   1235000   299.74486      0.1235         4.7076007     -34016.571      73.220742     -15988.447    
   1240000   295.80165      0.124          4.6426962     -34010.836      73.253328     -15040.403    
   1245000   298.29059      0.1245         4.772726      -34009.199      73.285914     -16137.591    
   1250000   304.07313      0.125          4.7457593     -34011.595      73.3185       -16145.842    
   1255000   299.16798      0.1255         4.7194257     -34000.017      73.351086     -15634.319    
   1260000   301.68261      0.126          4.7291874     -34003.545      73.383672     -15795.804    
   1265000   303.24853      0.1265         4.7827127     -34003.277      73.416258     -15687.955    
   1270000   298.7569       0.127          4.7811587     -34001.079      73.448844     -16142.193    
   1275000   298.49123      0.1275         4.8508078     -33998.349      73.48143      -16275.455    
   1280000   301.83341      0.128          4.8274963     -33995.143      73.514016     -16297.42     
   1285000   296.1507       0.1285         4.7570439     -33995.83       73.546602     -15461.297    
   1290000   299.64798      0.129          4.7528449     -33988.719      73.579188     -15622.192    
   1295000   305.45223      0.1295         4.8264473     -33985.468      73.611774     -16174.472    
   1300000   301.15396      0.13           4.8787308     -33985.052      73.64436      -16376.455    
   1305000   293.85433      0.1305         4.9030811     -33992.461      73.676946     -16512.893    
   1310000   300.65718      0.131          4.8450575     -33984.916      73.709532     -16048.012    
   1315000   298.04972      0.1315         4.8929765     -33979.191      73.742118     -16436.559    
   1320000   300.13353      0.132          4.9142552     -33979.77       73.774704     -16312.866    
   1325000   294.22129      0.1325         4.8962781     -33972.908      73.80729      -16177.286    
   1330000   298.28309      0.133          4.94289       -33973.468      73.839876     -16306.616    
   1335000   300.45242      0.1335         4.9926969     -33975.034      73.872462     -16787.865    
   1340000   300.52199      0.134          5.0485498     -33970.68       73.905048     -16640.383    
   1345000   295.88893      0.1345         5.0539918     -33970.876      73.937634     -16944.236    
   1350000   305.25316      0.135          5.1007024     -33964.214      73.97022      -17282.481    
   1355000   298.95703      0.1355         5.0528149     -33964.852      74.002806     -16678.482    
   1360000   299.49653      0.136          5.0633677     -33961.472      74.035392     -16537.969    
   1365000   300.56222      0.1365         5.1947483     -33958.524      74.067978     -18084.374    
   1370000   295.38073      0.137          5.1968292     -33956.817      74.100564     -17556.485    
   1375000   302.10374      0.1375         5.1672034     -33954.98       74.13315      -17614.373    
   1380000   300.18992      0.138          5.1111755     -33948.983      74.165736     -16492.128    
   1385000   298.53328      0.1385         5.1946946     -33943.736      74.198322     -17594.435    
   1390000   299.08129      0.139          5.20044       -33945.098      74.230908     -17484.685    
   1395000   302.96517      0.1395         5.2716378     -33942.02       74.263494     -17943.449    
   1400000   297.75223      0.14           5.1630487     -33943.374      74.29608      -16445.287    
   1405000   308.02428      0.1405         5.2439738     -33933.043      74.328666     -17769.561    
   1410000   301.12397      0.141          5.3621046     -33936.659      74.361252     -18421.844    
   1415000   303.76123      0.1415         5.3202969     -33933.101      74.393838     -17980.512    
   1420000   298.8596       0.142          5.2999841     -33927.723      74.426424     -17619.729    
   1425000   299.71295      0.1425         5.3500795     -33924.96       74.45901      -18236.225    
   1430000   295.19825      0.143          5.3684499     -33924.165      74.491596     -17979.83     
   1435000   299.08481      0.1435         5.4360572     -33920.781      74.524182     -18339.887    
   1440000   297.63655      0.144          5.4669543     -33916.384      74.556768     -18151.174    
   1445000   300.83584      0.1445         5.4250616     -33914.593      74.589354     -18314.896    
   1450000   300.62373      0.145          5.4300831     -33906.729      74.62194      -18016.408    
   1455000   300.7937       0.1455         5.4186619     -33916.988      74.654526     -17706.421    
   1460000   299.70024      0.146          5.4889513     -33908.385      74.687112     -18337.653    
   1465000   297.10119      0.1465         5.4927729     -33903.213      74.719698     -18298.642    
   1470000   301.61265      0.147          5.4637418     -33899.318      74.752284     -18007.181    
   1475000   298.32253      0.1475         5.499646      -33903.196      74.78487      -17968.988    
   1480000   297.10771      0.148          5.5524048     -33897.264      74.817456     -18865.989    
   1485000   298.56779      0.1485         5.6646807     -33891.442      74.850042     -19315.45     
   1490000   303.68637      0.149          5.4142042     -33893.616      74.882628     -17250.464    
   1495000   300.79501      0.1495         5.6264035     -33891.022      74.915214     -18791.625    
   1500000   294.36925      0.15           5.6277517     -33886.13       74.9478       -18694.724    
   1505000   301.58272      0.1505         5.6786224     -33882.883      74.980386     -19136.279    
   1510000   302.6036       0.151          5.5671675     -33882.099      75.012972     -18077.883    
   1515000   299.00028      0.1515         5.720503      -33876.853      75.045558     -18807.979    
   1520000   298.06866      0.152          5.7732123     -33871.459      75.078144     -19374.028    
   1525000   302.96018      0.1525         5.7952269     -33873.286      75.11073      -19713.922    
   1530000   296.84413      0.153          5.7592215     -33870.597      75.143316     -19340.771    
   1535000   294.96216      0.1535         5.6419971     -33865.309      75.175902     -18278.238    
   1540000   301.27709      0.154          5.7479092     -33866.313      75.208488     -19079.795    
   1545000   301.2086       0.1545         5.7530111     -33860.646      75.241074     -19612.878    
   1550000   298.6287       0.155          5.7906887     -33858.359      75.27366      -19626.591    
   1555000   294.47126      0.1555         5.8128452     -33859.459      75.306246     -19310.738    
   1560000   300.14948      0.156          5.8292304     -33858.129      75.338832     -19458.206    
   1565000   298.40793      0.1565         5.7784545     -33856.725      75.371418     -19170.701    
   1570000   304.02645      0.157          5.8160756     -33845.057      75.404004     -19378.706    
   1575000   301.1305       0.1575         5.8137674     -33851.817      75.43659      -19274.947    
   1580000   298.47466      0.158          5.9169383     -33843.362      75.469176     -19943.216    
   1585000   300.9306       0.1585         5.8198704     -33843.691      75.501762     -19564.568    
   1590000   299.03128      0.159          5.8932643     -33841.805      75.534348     -19601.575    
   1595000   297.53967      0.1595         5.8224335     -33841.296      75.566934     -19276.387    
   1600000   299.20351      0.16           5.8847125     -33840.743      75.59952      -19317.336    
   1605000   302.16721      0.1605         5.9190017     -33837.785      75.632106     -19502.036    
   1610000   298.7762       0.161          5.9001043     -33829.784      75.664692     -19659.021    
   1615000   302.77844      0.1615         5.9838755     -33829.995      75.697278     -19964.668    
   1620000   298.34754      0.162          5.9508623     -33829.305      75.729864     -19943.901    
   1625000   301.59282      0.1625         6.0094206     -33824.411      75.76245      -20154.833    
   1630000   304.54879      0.163          6.009598      -33822.217      75.795036     -20240.686    
   1635000   296.16865      0.1635         5.9442289     -33817.839      75.827622     -19359.4      
   1640000   301.87616      0.164          5.9902723     -33819.609      75.860208     -19721.96     
   1645000   299.76266      0.1645         5.9983622     -33814.904      75.892794     -19953.296    
   1650000   302.71655      0.165          6.1674891     -33808.489      75.92538      -20749.161    
   1655000   299.06402      0.1655         6.0520095     -33809.272      75.957966     -19995.512    
   1660000   305.53777      0.166          6.0827786     -33804.97       75.990552     -20196.771    
   1665000   297.97547      0.1665         6.1351254     -33807.065      76.023138     -20299.305    
   1670000   303.92558      0.167          6.1405441     -33799.959      76.055724     -20218.465    
   1675000   303.21712      0.1675         6.1865628     -33798.453      76.08831      -20343.532    
   1680000   297.13337      0.168          6.1660822     -33799.605      76.120896     -20683.754    
   1685000   301.13923      0.1685         6.2462472     -33793.716      76.153482     -20836.494    
   1690000   300.79601      0.169          6.2168823     -33786.46       76.186068     -20650.588    
   1695000   302.23755      0.1695         6.2415227     -33785.055      76.218654     -20997.138    
   1700000   298.43         0.17           6.1855299     -33788.973      76.25124      -20404.253    
   1705000   291.9721       0.1705         6.2021479     -33779.692      76.283826     -20561.123    
   1710000   300.796        0.171          6.1890025     -33780.376      76.316412     -20629.005    
   1715000   295.18843      0.1715         6.2964169     -33782.173      76.348998     -21082.479    
   1720000   300.9402       0.172          6.2760283     -33779.939      76.381584     -20923.365    
   1725000   299.48206      0.1725         6.2170897     -33771.658      76.41417      -20264.826    
   1730000   304.16971      0.173          6.208119      -33766.739      76.446756     -20334.107    
   1735000   300.63064      0.1735         6.3471604     -33766.308      76.479342     -21110.646    
   1740000   301.12548      0.174          6.4704884     -33767.997      76.511928     -22438.518    
   1745000   300.57905      0.1745         6.3940999     -33762.132      76.544514     -21666.569    
   1750000   302.61353      0.175          6.2832686     -33754.007      76.5771       -20511.604    
   1755000   299.82109      0.1755         6.4063851     -33752.176      76.609686     -21114.8      
   1760000   307.72428      0.176          6.407827      -33752.743      76.642272     -21660.052    
   1765000   301.01817      0.1765         6.359764      -33748.485      76.674858     -21253.317    
   1770000   300.40105      0.177          6.3491251     -33747.451      76.707444     -21008.84     
   1775000   297.66196      0.1775         6.4765535     -33744.08       76.74003      -21608.285    
   1780000   298.56724      0.178          6.4637638     -33742.913      76.772616     -21671.982    
   1785000   296.4751       0.1785         6.3919699     -33741.533      76.805202     -21325.971    
   1790000   301.36673      0.179          6.3855136     -33734.668      76.837788     -21055.488    
   1795000   297.45004      0.1795         6.5081797     -33733.236      76.870374     -22313.88     
   1800000   299.53122      0.18           6.5769642     -33733.369      76.90296      -21899.844    
   1805000   300.4268       0.1805         6.4992358     -33736.06       76.935546     -21615.931    
   1810000   298.16759      0.181          6.5373913     -33728.192      76.968132     -22099.75     
   1815000   296.64338      0.1815         6.5840354     -33723.551      77.000718     -22308.215    
   1820000   299.13601      0.182          6.5865437     -33722.277      77.033304     -21934.727    
   1825000   303.05663      0.1825         6.5579125     -33719.661      77.06589      -21883.983    
   1830000   297.17443      0.183          6.6288464     -33713.606      77.098476     -22047.135    
   1835000   300.48234      0.1835         6.5845032     -33715.511      77.131062     -21556.618    
   1840000   300.04296      0.184          6.6713415     -33712.53       77.163648     -22677.689    
   1845000   302.13479      0.1845         6.5158484     -33709.349      77.196234     -21460.747    
   1850000   298.08769      0.185          6.6311143     -33709.235      77.22882      -22059.303    
   1855000   301.49767      0.1855         6.6969859     -33707.192      77.261406     -22430        
   1860000   299.13514      0.186          6.5595978     -33703.569      77.293992     -21665.547    
   1865000   298.75044      0.1865         6.6403884     -33706.034      77.326578     -21871.552    
   1870000   295.85045      0.187          6.609402      -33698.481      77.359164     -22022.251    
   1875000   300.25147      0.1875         6.7062725     -33699.698      77.39175      -22152.705    
   1880000   301.61282      0.188          6.4849557     -33695.91       77.424336     -21346.346    
   1885000   299.3368       0.1885         6.6563257     -33689.43       77.456922     -22266.935    
   1890000   300.24862      0.189          6.7112423     -33691.36       77.489508     -22478.333    
   1895000   300.97632      0.1895         6.7587312     -33686.828      77.522094     -22972.792    
   1900000   296.55427      0.19           6.7083057     -33688.003      77.55468      -22376.43     
   1905000   303.54406      0.1905         6.7345147     -33679.414      77.587266     -22102.673    
   1910000   299.73668      0.191          6.7010488     -33671.972      77.619852     -22194.332    
   1915000   298.74041      0.1915         6.8032178     -33672.187      77.652438     -22631.608    
   1920000   299.31449      0.192          6.7986788     -33671.414      77.685024     -22747.827    
   1925000   301.38594      0.1925         6.8799808     -33672.011      77.71761      -23246.693    
   1930000   303.15282      0.193          6.8824399     -33662.96       77.750196     -23121.059    
   1935000   300.51286      0.1935         6.9050909     -33661.196      77.782782     -23012.226    
   1940000   295.88555      0.194          6.8168821     -33657.622      77.815368     -22389.182    
   1945000   300.91156      0.1945         6.7905139     -33654.115      77.847954     -22343.824    
   1950000   296.79206      0.195          6.8653695     -33654.185      77.88054      -22562.632    
   1955000   299.73425      0.1955         6.9347502     -33653.929      77.913126     -23054.77     
   1960000   300.04754      0.196          6.9052973     -33646.432      77.945712     -23001.715    
   1965000   302.08829      0.1965         6.9895121     -33647.296      77.978298     -23396.958    
   1970000   301.83773      0.197          7.0040169     -33640.633      78.010884     -23299.297    
   1975000   301.46034      0.1975         7.0886949     -33637.805      78.04347      -23562.663    
   1980000   295.35171      0.198          7.0741505     -33632.494      78.076056     -23378.347    
   1985000   304.52186      0.1985         7.0545145     -33629.199      78.108642     -23422.534    
   1990000   296.32058      0.199          7.1030791     -33623.813      78.141228     -23831.751    
   1995000   300.01536      0.1995         7.0614595     -33626.332      78.173814     -23849.303    
   2000000   302.40966      0.2            7.2149471     -33624.564      78.2064       -24570.05     
Loop time of 34668.2 on 1 procs for 2000000 steps with 7596 atoms

Performance: 4.984 ns/day, 4.815 hours/ns, 57.690 timesteps/s, 438.212 katom-step/s
98.3% CPU use with 1 MPI tasks x 1 OpenMP threads

MPI task timing breakdown:
Section |  min time  |  avg time  |  max time  |%varavg| %total
---------------------------------------------------------------
Pair    | 33994      | 33994      | 33994      |   0.0 | 98.06
Neigh   | 115.26     | 115.26     | 115.26     |   0.0 |  0.33
Comm    | 14.101     | 14.101     | 14.101     |   0.0 |  0.04
Output  | 0.023246   | 0.023246   | 0.023246   |   0.0 |  0.00
Modify  | 494.74     | 494.74     | 494.74     |   0.0 |  1.43
Other   |            | 50.14      |            |       |  0.14

Nlocal:           7596 ave        7596 max        7596 min
Histogram: 1 0 0 0 0 0 0 0 0 0
Nghost:           1046 ave        1046 max        1046 min
Histogram: 1 0 0 0 0 0 0 0 0 0
Neighs:              0 ave           0 max           0 min
Histogram: 1 0 0 0 0 0 0 0 0 0
FullNghs:       204962 ave      204962 max      204962 min
Histogram: 1 0 0 0 0 0 0 0 0 0

Total # of neighbors = 204962
Ave neighs/atom = 26.982886
Neighbor list builds = 12022
Dangerous builds = 0
DONE RAD=5 RATE=0.0001 atoms=7596 finalstrain=0.2000000000000000111
Total wall time: 9:46:29
