LAMMPS (7 Feb 2024 - Update 1)
OMP_NUM_THREADS environment is not set. Defaulting to 1 thread. (src/comm.cpp:98)
  using 1 OpenMP thread(s) per MPI task
Lattice spacing in x,y,z = 5.431 5.431 5.431
Created orthogonal box = (-81.465 -81.465 0) to (81.465 81.465 65.172)
  1 by 1 by 1 MPI processor grid
Created 30252 atoms
  using lattice units in orthogonal box = (-81.481293 -81.481293 0) to (81.481293 81.481293 65.172)
  create_atoms CPU = 0.008 seconds
Reading tersoff potential file Si.tersoff with DATE: 2007-10-25
Neighbor list info ...
  update: every = 1 steps, delay = 0 steps, check = yes
  max neighbors/atom: 2000, page size: 100000
  master list distance cutoff = 5.2
  ghost atom cutoff = 5.2
  binsize = 2.6, bins = 63 63 26
  1 neighbor lists, perpetual/occasional/extra = 1 0 0
  (1) pair tersoff, perpetual
      attributes: full, newton on
      pair build: full/bin/atomonly
      stencil: full/bin/3d
      bin: standard
Setting up cg style minimization ...
  Unit style    : metal
  Current step  : 0
Per MPI rank memory allocation (min/avg/max) = 15.21 | 15.21 | 15.21 Mbytes
   Step          Temp          E_pair         E_mol          TotEng         Press          Volume    
         0   0             -137654.71      0             -137654.71     -1511.4146      769380.52    
        24   0             -137668.28      0             -137668.28     -90.630177      769380.52    
Loop time of 3.49444 on 1 procs for 24 steps with 30252 atoms

98.2% CPU use with 1 MPI tasks x 1 OpenMP threads

Minimization stats:
  Stopping criterion = energy tolerance
  Energy initial, next-to-last, final = 
     -137654.705097166  -137668.281596338  -137668.282938006
  Force two-norm initial, final = 17.811005 0.13821401
  Force max component initial, final = 0.4601903 0.0025654827
  Final line search alpha, max atom move = 1 0.0025654827
  Iterations, force evaluations = 24 48

MPI task timing breakdown:
Section |  min time  |  avg time  |  max time  |%varavg| %total
---------------------------------------------------------------
Pair    | 3.4496     | 3.4496     | 3.4496     |   0.0 | 98.72
Neigh   | 0          | 0          | 0          |   0.0 |  0.00
Comm    | 0.002065   | 0.002065   | 0.002065   |   0.0 |  0.06
Output  | 0          | 0          | 0          |   0.0 |  0.00
Modify  | 0          | 0          | 0          |   0.0 |  0.00
Other   |            | 0.04276    |            |       |  1.22

Nlocal:          30252 ave       30252 max       30252 min
Histogram: 1 0 0 0 0 0 0 0 0 0
Nghost:           4409 ave        4409 max        4409 min
Histogram: 1 0 0 0 0 0 0 0 0 0
Neighs:              0 ave           0 max           0 min
Histogram: 1 0 0 0 0 0 0 0 0 0
FullNghs:       816144 ave      816144 max      816144 min
Histogram: 1 0 0 0 0 0 0 0 0 0

Total # of neighbors = 816144
Ave neighs/atom = 26.978183
Neighbor list builds = 0
Dangerous builds = 0
Setting up Verlet run ...
  Unit style    : metal
  Current step  : 0
  Time step     : 0.001
Per MPI rank memory allocation (min/avg/max) = 11.84 | 11.84 | 11.84 Mbytes
   Step          Temp          PotEng         Press           Pzz             Lz      
         0   300           -137668.28      1543.7878      1481.2258      65.172       
      1000   304.54613     -137143.49      235.90512     -311.01443      65.172       
      2000   299.90593     -137476.18     -1217.2497     -1913.9733      65.172       
      3000   300.58371     -137580.64     -27.403734     -911.8338       65.172       
      4000   297.81167     -137602.86     -1022.9275     -2091.1339      65.172       
      5000   297.20931     -137629.02     -294.4814      -1470.0939      65.172       
      6000   299.74393     -137624.47     -376.69171     -1638.5911      65.172       
      7000   299.72384     -137653.44     -759.60046     -1863.1632      65.172       
      8000   301.3016      -137645.58     -137.38491     -1409.4373      65.172       
      9000   297.1501      -137653.17     -1467.1536     -2670.4542      65.172       
     10000   300.54514     -137649.1       108.79913     -1165.8159      65.172       
     11000   298.4756      -137655        -1602.8914     -2726.7378      65.172       
     12000   299.91394     -137655.6       223.73811     -1200.5481      65.172       
     13000   298.60477     -137658.82     -1500.7718     -2562.0214      65.172       
     14000   300.7972      -137663.65      327.5583      -1016.7802      65.172       
     15000   301.12399     -137666.49     -1233.7526     -2291.2325      65.172       
     16000   299.7476      -137670.33     -97.868641     -1305.5115      65.172       
     17000   301.74339     -137661.76     -947.78714     -2245.2045      65.172       
     18000   301.22917     -137667.75     -418.79905     -1672.0609      65.172       
     19000   300.09304     -137667.26     -681.42104     -1899.0824      65.172       
     20000   300.34307     -137676.15     -814.87658     -2058.1249      65.172       
     21000   303.5247      -137657.2      -238.00173     -1589.1682      65.172       
     22000   301.12564     -137676.77     -1155.3789     -2310.6229      65.172       
     23000   301.80738     -137667.47      48.229437     -1257.8771      65.172       
     24000   299.89902     -137671.7      -1316.4766     -2545.3258      65.172       
     25000   300.87418     -137669.47      101.13933     -1098.2165      65.172       
     26000   296.71044     -137680.68     -1420.0839     -2620.1745      65.172       
     27000   301.43423     -137672.32      43.627619     -1399.2091      65.172       
     28000   298.53062     -137679.32     -1207.3902     -2330.4364      65.172       
     29000   302.17248     -137673.71      58.727146     -1243.8332      65.172       
     30000   299.43039     -137678.65     -1189.3179     -2334.1201      65.172       
Loop time of 2412.81 on 1 procs for 30000 steps with 30252 atoms

Performance: 1.074 ns/day, 22.341 hours/ns, 12.434 timesteps/s, 376.143 katom-step/s
98.1% CPU use with 1 MPI tasks x 1 OpenMP threads

MPI task timing breakdown:
Section |  min time  |  avg time  |  max time  |%varavg| %total
---------------------------------------------------------------
Pair    | 2374.2     | 2374.2     | 2374.2     |   0.0 | 98.40
Neigh   | 9.9594     | 9.9594     | 9.9594     |   0.0 |  0.41
Comm    | 1.4501     | 1.4501     | 1.4501     |   0.0 |  0.06
Output  | 0.0095463  | 0.0095463  | 0.0095463  |   0.0 |  0.00
Modify  | 19.987     | 19.987     | 19.987     |   0.0 |  0.83
Other   |            | 7.179      |            |       |  0.30

Nlocal:          30252 ave       30252 max       30252 min
Histogram: 1 0 0 0 0 0 0 0 0 0
Nghost:           4497 ave        4497 max        4497 min
Histogram: 1 0 0 0 0 0 0 0 0 0
Neighs:              0 ave           0 max           0 min
Histogram: 1 0 0 0 0 0 0 0 0 0
FullNghs:       833220 ave      833220 max      833220 min
Histogram: 1 0 0 0 0 0 0 0 0 0

Total # of neighbors = 833220
Ave neighs/atom = 27.542642
Neighbor list builds = 248
Dangerous builds = 0
Setting up Verlet run ...
  Unit style    : metal
  Current step  : 0
  Time step     : 0.001
Per MPI rank memory allocation (min/avg/max) = 11.86 | 11.86 | 11.86 Mbytes
   Step          Temp         v_strain     v_stress_GPa      PotEng           Lz           Press     
         0   299.43039      0              0.23392047    -137678.65      65.172        -1191.9086    
      5000   299.8647       0.025          1.2349026     -137595.07      66.8013       -4934.6364    
     10000   298.94411      0.05           2.0695862     -137394.33      68.4306       -6259.5926    
     15000   299.93051      0.075          3.1660617     -137088.32      70.0599       -10064.99     
     20000   301.73614      0.1            4.4393142     -136669.32      71.6892       -15293.327    
     25000   301.49607      0.125          5.6376029     -136138.04      73.3185       -19518.93     
     30000   301.3048       0.15           6.7527571     -135506.27      74.9478       -22684.457    
     35000   301.25511      0.175          7.7910323     -134776.33      76.5771       -25592.043    
     40000   300.25639      0.2            8.8992361     -133970.46      78.2064       -29131.748    
Loop time of 3553.97 on 1 procs for 40000 steps with 30252 atoms

Performance: 0.972 ns/day, 24.680 hours/ns, 11.255 timesteps/s, 340.487 katom-step/s
98.0% CPU use with 1 MPI tasks x 1 OpenMP threads

MPI task timing breakdown:
Section |  min time  |  avg time  |  max time  |%varavg| %total
---------------------------------------------------------------
Pair    | 3475.5     | 3475.5     | 3475.5     |   0.0 | 97.79
Neigh   | 14.224     | 14.224     | 14.224     |   0.0 |  0.40
Comm    | 1.6752     | 1.6752     | 1.6752     |   0.0 |  0.05
Output  | 0.0096433  | 0.0096433  | 0.0096433  |   0.0 |  0.00
Modify  | 52.54      | 52.54      | 52.54      |   0.0 |  1.48
Other   |            | 10.06      |            |       |  0.28

Nlocal:          30252 ave       30252 max       30252 min
Histogram: 1 0 0 0 0 0 0 0 0 0
Nghost:           4233 ave        4233 max        4233 min
Histogram: 1 0 0 0 0 0 0 0 0 0
Neighs:              0 ave           0 max           0 min
Histogram: 1 0 0 0 0 0 0 0 0 0
FullNghs:       860676 ave      860676 max      860676 min
Histogram: 1 0 0 0 0 0 0 0 0 0

Total # of neighbors = 860676
Ave neighs/atom = 28.450218
Neighbor list builds = 319
Dangerous builds = 0
DONE RAD=10 RATE=0.005 atoms=30252 finalstrain=0.2000000000000000111
Total wall time: 1:39:30
