LAMMPS (7 Feb 2024 - Update 1)
OMP_NUM_THREADS environment is not set. Defaulting to 1 thread. (src/comm.cpp:98)
  using 1 OpenMP thread(s) per MPI task
Lattice spacing in x,y,z = 5.431 5.431 5.431
Created orthogonal box = (-81.465 -81.465 0) to (81.465 81.465 65.172)
  1 by 1 by 1 MPI processor grid
Created 2700 atoms
  using lattice units in orthogonal box = (-81.481293 -81.481293 0) to (81.481293 81.481293 65.172)
  create_atoms CPU = 0.002 seconds
Reading tersoff potential file Si.tersoff with DATE: 2007-10-25
Neighbor list info ...
  update: every = 1 steps, delay = 0 steps, check = yes
  max neighbors/atom: 2000, page size: 100000
  master list distance cutoff = 5.2
  ghost atom cutoff = 5.2
  binsize = 2.6, bins = 63 63 26
  1 neighbor lists, perpetual/occasional/extra = 1 0 0
  (1) pair tersoff, perpetual
      attributes: full, newton on
      pair build: full/bin/atomonly
      stencil: full/bin/3d
      bin: standard
Setting up cg style minimization ...
  Unit style    : metal
  Current step  : 0
Per MPI rank memory allocation (min/avg/max) = 4.243 | 4.243 | 4.243 Mbytes
   Step          Temp          E_pair         E_mol          TotEng         Press          Volume    
         0   0             -11781.033      0             -11781.033     -5277.7537      69341.193    
        27   0             -11785.307      0             -11785.307     -112.75437      69341.193    
Loop time of 0.259405 on 1 procs for 27 steps with 2700 atoms

97.8% CPU use with 1 MPI tasks x 1 OpenMP threads

Minimization stats:
  Stopping criterion = energy tolerance
  Energy initial, next-to-last, final = 
     -11781.0325785608   -11785.306449307  -11785.3065320948
  Force two-norm initial, final = 10.038548 0.032353979
  Force max component initial, final = 0.4601903 0.00097490016
  Final line search alpha, max atom move = 1 0.00097490016
  Iterations, force evaluations = 27 54

MPI task timing breakdown:
Section |  min time  |  avg time  |  max time  |%varavg| %total
---------------------------------------------------------------
Pair    | 0.25718    | 0.25718    | 0.25718    |   0.0 | 99.14
Neigh   | 0          | 0          | 0          |   0.0 |  0.00
Comm    | 0.00012375 | 0.00012375 | 0.00012375 |   0.0 |  0.05
Output  | 0          | 0          | 0          |   0.0 |  0.00
Modify  | 0          | 0          | 0          |   0.0 |  0.00
Other   |            | 0.002099   |            |       |  0.81

Nlocal:           2700 ave        2700 max        2700 min
Histogram: 1 0 0 0 0 0 0 0 0 0
Nghost:            389 ave         389 max         389 min
Histogram: 1 0 0 0 0 0 0 0 0 0
Neighs:              0 ave           0 max           0 min
Histogram: 1 0 0 0 0 0 0 0 0 0
FullNghs:        66384 ave       66384 max       66384 min
Histogram: 1 0 0 0 0 0 0 0 0 0

Total # of neighbors = 66384
Ave neighs/atom = 24.586667
Neighbor list builds = 0
Dangerous builds = 0
Setting up Verlet run ...
  Unit style    : metal
  Current step  : 0
  Time step     : 0.001
Per MPI rank memory allocation (min/avg/max) = 3.118 | 3.118 | 3.118 Mbytes
   Step          Temp          PotEng         Press           Pzz             Lz      
         0   300           -11785.307      1518.6318      1247.9669      65.172       
      1000   325.29217     -11892.595      317.11599     -2032.1341      65.172       
      2000   306.67666     -11954.41      -2509.0176     -4734.4001      65.172       
      3000   293.66395     -11995.95      -1252.1142     -4556.5963      65.172       
      4000   302.72715     -12005.813     -1745.9612     -5408.6769      65.172       
      5000   293.5015      -12021.216     -1302.8815     -4733.4724      65.172       
      6000   302.82086     -12026.838     -1914.6889     -5783.2391      65.172       
      7000   300.33604     -12031.286     -1198.0896     -4695.0037      65.172       
      8000   296.20304     -12033.341     -1776.0625     -5026.1747      65.172       
      9000   302.47624     -12035.824     -1720.9119     -4836.5079      65.172       
     10000   290.6949      -12038.394     -1939.0674     -5447.1049      65.172       
     11000   305.85767     -12041.323     -2327.0522     -5768.0307      65.172       
     12000   294.93866     -12042.97      -1294.0369     -5501.45        65.172       
     13000   298.05947     -12041.371     -1896.6941     -5881.4868      65.172       
     14000   299.29428     -12048.278     -2460.8258     -6005.261       65.172       
     15000   288.7035      -12041.157     -542.89546     -3777.9744      65.172       
     16000   295.48496     -12045.448     -3394.6564     -7293.1365      65.172       
     17000   301.79728     -12048.723     -936.60717     -4374.9125      65.172       
     18000   301.64928     -12043.813     -1966.2834     -5343.5289      65.172       
     19000   301.71697     -12047.916     -2047.3918     -5825.7352      65.172       
     20000   302.59375     -12047.187     -2134.2917     -6494.0566      65.172       
     21000   295.2626      -12050.254     -1717.016      -4922.916       65.172       
     22000   298.18815     -12049.877     -2705.5222     -6444.1278      65.172       
     23000   305.90466     -12046.451     -2529.4994     -6116.5326      65.172       
     24000   292.18818     -12047.205     -1292.376      -5246.8859      65.172       
     25000   303.94664     -12047.851     -1934.9468     -4846.8226      65.172       
     26000   296.55811     -12048.254     -1097.2949     -4773.2271      65.172       
     27000   306.04991     -12049.012     -1583.6322     -4967.5685      65.172       
     28000   298.28959     -12049.892     -1417.1588     -5387.006       65.172       
     29000   297.97366     -12049.592     -2648.3961     -6845.8543      65.172       
     30000   289.92873     -12053.979     -2047.5598     -6541.8456      65.172       
Loop time of 177.984 on 1 procs for 30000 steps with 2700 atoms

Performance: 14.563 ns/day, 1.648 hours/ns, 168.554 timesteps/s, 455.097 katom-step/s
100.0% CPU use with 1 MPI tasks x 1 OpenMP threads

MPI task timing breakdown:
Section |  min time  |  avg time  |  max time  |%varavg| %total
---------------------------------------------------------------
Pair    | 175.74     | 175.74     | 175.74     |   0.0 | 98.74
Neigh   | 0.64807    | 0.64807    | 0.64807    |   0.0 |  0.36
Comm    | 0.10075    | 0.10075    | 0.10075    |   0.0 |  0.06
Output  | 0.0012918  | 0.0012918  | 0.0012918  |   0.0 |  0.00
Modify  | 1.2473     | 1.2473     | 1.2473     |   0.0 |  0.70
Other   |            | 0.2505     |            |       |  0.14

Nlocal:           2700 ave        2700 max        2700 min
Histogram: 1 0 0 0 0 0 0 0 0 0
Nghost:            412 ave         412 max         412 min
Histogram: 1 0 0 0 0 0 0 0 0 0
Neighs:              0 ave           0 max           0 min
Histogram: 1 0 0 0 0 0 0 0 0 0
FullNghs:        69172 ave       69172 max       69172 min
Histogram: 1 0 0 0 0 0 0 0 0 0

Total # of neighbors = 69172
Ave neighs/atom = 25.619259
Neighbor list builds = 206
Dangerous builds = 0
Setting up Verlet run ...
  Unit style    : metal
  Current step  : 0
  Time step     : 0.001
Per MPI rank memory allocation (min/avg/max) = 3.118 | 3.118 | 3.118 Mbytes
   Step          Temp         v_strain     v_stress_GPa      PotEng           Lz           Press     
         0   289.92873      0              0.6554251     -12053.979      65.172        -2051.4426    
      5000   300.79793      0.0005         0.69036117    -12053.675      65.204586     -2612.1219    
     10000   305.00863      0.001          0.58000958    -12052.814      65.237172     -945.89169    
     15000   300.9727       0.0015         0.62875635    -12052.497      65.269758     -1666.9463    
     20000   304.90814      0.002          0.66672107    -12052.333      65.302344     -2450.6991    
     25000   304.53739      0.0025         0.77059472    -12059.986      65.33493      -3189.8711    
     30000   300.72953      0.003          0.68866357    -12061.253      65.367516     -1850.0396    
     35000   293.2682       0.0035         0.828361      -12059.611      65.400102     -2898.653     
     40000   308.79516      0.004          0.85374554    -12059.987      65.432688     -2953.4394    
     45000   309.98882      0.0045         0.84577172    -12061.729      65.465274     -2891.537     
     50000   301.40669      0.005          0.6403614     -12062.755      65.49786      -1233.5764    
     55000   299.47946      0.0055         0.84574201    -12062.674      65.530446     -3066.4832    
     60000   300.19257      0.006          0.81511904    -12058.003      65.563032     -2912.0153    
     65000   305.7146       0.0065         0.74142854    -12061.335      65.595618     -2098.1013    
     70000   306.09941      0.007          0.95469956    -12063.322      65.628204     -3936.6306    
     75000   300.3087       0.0075         0.90455592    -12062.144      65.66079      -2981.6999    
     80000   301.92337      0.008          0.76243689    -12061.027      65.693376     -1604.5077    
     85000   301.7911       0.0085         0.87642494    -12065.599      65.725962     -3436.4352    
     90000   305.83849      0.009          0.93957152    -12060.485      65.758548     -3343.3716    
     95000   301.59423      0.0095         0.94234365    -12062.382      65.791134     -3643.1955    
    100000   296.24181      0.01           0.77644112    -12063.774      65.82372      -2452.2137    
    105000   288.73339      0.0105         0.79087315    -12063.382      65.856306     -1704.6328    
    110000   300.30693      0.011          1.0790626     -12059.952      65.888892     -4772.5074    
    115000   294.68973      0.0115         0.95468994    -12064.167      65.921478     -3403.9647    
    120000   297.14606      0.012          0.87451518    -12059.462      65.954064     -2488.2793    
    125000   305.61641      0.0125         0.90978597    -12061.923      65.98665      -3302.2949    
    130000   295.64128      0.013          0.86494624    -12065.309      66.019236     -2508.2354    
    135000   295.98255      0.0135         1.1004924     -12065.994      66.051822     -3660.1894    
    140000   302.52018      0.014          1.0105767     -12063.488      66.084408     -3431.8225    
    145000   307.39701      0.0145         1.05363       -12062.395      66.116994     -3729.5618    
    150000   295.44375      0.015          0.97908462    -12066.025      66.14958      -2696.9782    
    155000   296.76847      0.0155         0.96468142    -12062.234      66.182166     -3051.8777    
    160000   296.99752      0.016          1.1402367     -12064.336      66.214752     -4712.5825    
    165000   292.99842      0.0165         1.1819078     -12065.082      66.247338     -4774.7748    
    170000   299.58359      0.017          1.0405896     -12063.421      66.279924     -2732.6034    
    175000   304.16192      0.0175         1.1343045     -12067.582      66.31251      -3377.0357    
    180000   304.52314      0.018          1.3007484     -12066.219      66.345096     -5379.2741    
    185000   301.82744      0.0185         1.1139481     -12065.984      66.377682     -3044.7784    
    190000   300.51609      0.019          1.0712703     -12065.38       66.410268     -2958.9369    
    195000   303.0418       0.0195         1.3697878     -12065.846      66.442854     -5766.2892    
    200000   297.89816      0.02           1.261853      -12067.93       66.47544      -3805.1881    
    205000   298.06113      0.0205         1.3039867     -12067.499      66.508026     -4711.9028    
    210000   304.35546      0.021          1.096017      -12069.823      66.540612     -2956.7565    
    215000   303.93063      0.0215         1.2227854     -12064.674      66.573198     -4006.6032    
    220000   296.52569      0.022          1.2688182     -12067.014      66.605784     -3881.9515    
    225000   302.58549      0.0225         1.442342      -12066.667      66.63837      -6299.6179    
    230000   302.83033      0.023          1.3922309     -12064.05       66.670956     -5123.2032    
    235000   309.6226       0.0235         1.4467102     -12061.38       66.703542     -4944.5484    
    240000   294.03715      0.024          1.3813449     -12065.378      66.736128     -4477.0261    
    245000   303.75922      0.0245         1.3662574     -12060.806      66.768714     -4387.429     
    250000   297.3356       0.025          1.3397196     -12065.818      66.8013       -4086.8811    
    255000   300.82225      0.0255         1.3150329     -12064.293      66.833886     -3452.1789    
    260000   291.56471      0.026          1.400981      -12062.461      66.866472     -4842.6617    
    265000   295.24968      0.0265         1.5198942     -12065.463      66.899058     -5389.6788    
    270000   304.92135      0.027          1.5070265     -12062.409      66.931644     -5736.9699    
    275000   296.71739      0.0275         1.5762464     -12064.112      66.96423      -5270.1373    
    280000   298.05116      0.028          1.4111205     -12062.355      66.996816     -4769.594     
    285000   301.9782       0.0285         1.5225663     -12061.939      67.029402     -4886.2748    
    290000   298.81343      0.029          1.6006889     -12063.42       67.061988     -4961.017     
    295000   296.66231      0.0295         1.4464194     -12060.807      67.094574     -4049.4429    
    300000   297.6169       0.03           1.4831512     -12065.006      67.12716      -4368.4329    
    305000   296.91971      0.0305         1.7719936     -12056.903      67.159746     -6463.2478    
    310000   297.57472      0.031          1.6029843     -12059.806      67.192332     -4967.2694    
    315000   295.83755      0.0315         1.5590013     -12060.112      67.224918     -4594.8472    
    320000   298.01237      0.032          1.6194736     -12063.338      67.257504     -5329.6285    
    325000   298.15435      0.0325         1.7351254     -12061.165      67.29009      -6318.7361    
    330000   297.22908      0.033          1.6586843     -12060.993      67.322676     -5751.83      
    335000   297.63381      0.0335         1.5895494     -12058.605      67.355262     -5216.9666    
    340000   299.71623      0.034          1.743503      -12063.685      67.387848     -5487.0172    
    345000   303.94935      0.0345         1.7120114     -12056.755      67.420434     -6172.7659    
    350000   298.98926      0.035          1.6358958     -12057.686      67.45302      -4786.346     
    355000   296.75311      0.0355         1.6693979     -12060.462      67.485606     -4972.0998    
    360000   295.73767      0.036          1.7837946     -12060.767      67.518192     -5960.2513    
    365000   295.33332      0.0365         1.6921242     -12061.078      67.550778     -5275.5788    
    370000   302.37123      0.037          1.7091367     -12057.223      67.583364     -5704.3072    
    375000   309.9661       0.0375         1.7139425     -12059.139      67.61595      -5126.828     
    380000   293.43121      0.038          1.8947037     -12061.769      67.648536     -6795.2458    
    385000   302.65508      0.0385         1.8119344     -12056.348      67.681122     -6230.836     
    390000   306.89613      0.039          1.7737333     -12057.036      67.713708     -5666.3518    
    395000   311.42072      0.0395         1.90326       -12057.903      67.746294     -6225.3604    
    400000   295.01673      0.04           1.9079484     -12057.696      67.77888      -5761.5263    
    405000   307.90519      0.0405         1.9169679     -12059.941      67.811466     -6210.7588    
    410000   299.7899       0.041          1.9282974     -12054.696      67.844052     -6440.6349    
    415000   298.35046      0.0415         1.7953147     -12056.464      67.876638     -5662.4487    
    420000   296.73208      0.042          1.8069478     -12055.218      67.909224     -5675.2709    
    425000   292.64359      0.0425         1.8891582     -12054.17       67.94181      -6763.1998    
    430000   307.57397      0.043          1.9152445     -12055.589      67.974396     -6528.7117    
    435000   297.63401      0.0435         1.9114138     -12057.645      68.006982     -6033.3802    
    440000   294.67638      0.044          1.9475565     -12057.508      68.039568     -5534.3995    
    445000   301.04803      0.0445         1.8984826     -12054.686      68.072154     -5962.7211    
    450000   301.71479      0.045          1.8449238     -12055.121      68.10474      -5944.1112    
    455000   305.52544      0.0455         2.0189961     -12058.431      68.137326     -7332.9264    
    460000   295.93961      0.046          2.0768128     -12054.965      68.169912     -7182.9253    
    465000   303.82705      0.0465         2.1326644     -12056.437      68.202498     -8076.8563    
    470000   293.35266      0.047          2.035826      -12053.294      68.235084     -6450.2111    
    475000   297.85215      0.0475         2.056778      -12054.647      68.26767      -6915.4954    
    480000   302.18862      0.048          2.044204      -12057.255      68.300256     -6888.5501    
    485000   301.62631      0.0485         2.1013361     -12054.939      68.332842     -6563.8043    
    490000   297.52036      0.049          2.0851674     -12056.523      68.365428     -6951.3697    
    495000   300.07055      0.0495         2.179219      -12049.881      68.398014     -8055.0756    
    500000   303.43994      0.05           2.0789555     -12050.247      68.4306       -6925.0954    
    505000   298.46919      0.0505         2.3292893     -12050.123      68.463186     -8804.7996    
    510000   299.30306      0.051          2.1326984     -12052.088      68.495772     -7392.9621    
    515000   300.46088      0.0515         2.2042173     -12052.602      68.528358     -7588.1079    
    520000   294.38399      0.052          2.2179829     -12050.077      68.560944     -7951.3956    
    525000   296.97648      0.0525         2.1983326     -12053.871      68.59353      -7456.4218    
    530000   296.94516      0.053          2.1470388     -12055.447      68.626116     -7312.2132    
    535000   298.83813      0.0535         2.1690907     -12052.47       68.658702     -6739.5459    
    540000   308.15381      0.054          2.2259492     -12049.379      68.691288     -7959.7929    
    545000   300.85593      0.0545         2.1509532     -12052.424      68.723874     -6388.5181    
    550000   303.83352      0.055          2.3687709     -12051.41       68.75646      -8138.8676    
    555000   304.15182      0.0555         2.1393438     -12048.215      68.789046     -7252.3829    
    560000   302.1366       0.056          2.259155      -12049          68.821632     -7122.948     
    565000   300.16432      0.0565         2.2650194     -12052.052      68.854218     -7752.6572    
    570000   300.28845      0.057          2.4699011     -12048.773      68.886804     -8927.0986    
    575000   303.5197       0.0575         2.2693176     -12049.368      68.91939      -7154.8085    
    580000   301.21342      0.058          2.2959399     -12049.733      68.951976     -7850.0177    
    585000   297.11503      0.0585         2.3088704     -12047.252      68.984562     -8072.5809    
    590000   302.43295      0.059          2.3445224     -12049.351      69.017148     -7419.8563    
    595000   301.32454      0.0595         2.3692482     -12046.049      69.049734     -8198.8263    
    600000   302.44872      0.06           2.367793      -12046.869      69.08232      -7723.1969    
    605000   302.78721      0.0605         2.3957864     -12048.873      69.114906     -8044.1942    
    610000   296.34379      0.061          2.3565405     -12048.888      69.147492     -7313.9005    
    615000   297.69106      0.0615         2.3983721     -12042.679      69.180078     -8553.4171    
    620000   297.27086      0.062          2.5170556     -12047.339      69.212664     -8948.798     
    625000   299.0455       0.0625         2.5242321     -12046.926      69.24525      -9065.3717    
    630000   302.08852      0.063          2.5302363     -12045.043      69.277836     -8219.7068    
    635000   304.42919      0.0635         2.403143      -12046.131      69.310422     -7986.2592    
    640000   301.37496      0.064          2.6058101     -12047.124      69.343008     -9233.2957    
    645000   294.42514      0.0645         2.5245359     -12045.378      69.375594     -8609.0496    
    650000   302.94394      0.065          2.6323223     -12046.902      69.40818      -9639.6036    
    655000   304.22452      0.0655         2.4753557     -12046.381      69.440766     -9049.4318    
    660000   301.2862       0.066          2.4107403     -12045.805      69.473352     -7975.6659    
    665000   299.37058      0.0665         2.5766361     -12043.535      69.505938     -8792.5245    
    670000   301.70208      0.067          2.5676034     -12045.608      69.538524     -9114.4166    
    675000   302.4992       0.0675         2.5823201     -12045.036      69.57111      -9241.9626    
    680000   305.32086      0.068          2.5587081     -12041.818      69.603696     -8182.1451    
    685000   295.92883      0.0685         2.4360566     -12046.581      69.636282     -7245.2921    
    690000   303.27604      0.069          2.5784716     -12041.088      69.668868     -8821.8871    
    695000   302.13671      0.0695         2.6752774     -12040.903      69.701454     -9013.913     
    700000   304.98744      0.07           2.615652      -12043.041      69.73404      -8732.5512    
    705000   304.71642      0.0705         2.5834162     -12040.207      69.766626     -8249.0431    
    710000   310.90288      0.071          2.7127207     -12039.682      69.799212     -8834.9662    
    715000   306.28638      0.0715         2.5887797     -12038.902      69.831798     -8509.9629    
    720000   300.41699      0.072          2.6867148     -12037.342      69.864384     -9193.6864    
    725000   311.1083       0.0725         2.7375261     -12038.02       69.89697      -9184.0619    
    730000   292.10236      0.073          2.7307097     -12039.25       69.929556     -9523.6435    
    735000   300.9455       0.0735         2.8540277     -12039.365      69.962142     -10053.296    
    740000   296.30376      0.074          2.7776635     -12037.588      69.994728     -9640.8971    
    745000   308.23184      0.0745         2.7853218     -12037.778      70.027314     -9384.6046    
    750000   300.19038      0.075          2.7913518     -12036.241      70.0599       -9977.1041    
    755000   296.99546      0.0755         2.6437009     -12035.472      70.092486     -8503.4733    
    760000   297.71041      0.076          2.6682155     -12034.571      70.125072     -8555.7818    
    765000   295.01114      0.0765         2.867709      -12034.618      70.157658     -9239.4709    
    770000   301.84704      0.077          2.7901271     -12035.649      70.190244     -9574.329     
    775000   295.3071       0.0775         2.8779725     -12034.765      70.22283      -10028.027    
    780000   293.60189      0.078          2.8689454     -12034.789      70.255416     -9592.0531    
    785000   298.56942      0.0785         3.0374795     -12033.929      70.288002     -9760.4147    
    790000   293.93614      0.079          3.0301391     -12033.116      70.320588     -10753.28     
    795000   295.594        0.0795         2.981259      -12030.677      70.353174     -9718.2811    
    800000   300.57485      0.08           2.8925885     -12036.187      70.38576      -9064.0733    
    805000   293.08751      0.0805         2.7186881     -12035.488      70.418346     -8709.6025    
    810000   294.33302      0.081          2.9162974     -12034.265      70.450932     -9926.9077    
    815000   298.92902      0.0815         2.9557122     -12032.221      70.483518     -10446.531    
    820000   299.72846      0.082          2.7364777     -12032.344      70.516104     -8516.0981    
    825000   295.91583      0.0825         3.0595953     -12034.381      70.54869      -11101.777    
    830000   295.04501      0.083          2.9428811     -12029.529      70.581276     -9831.1054    
    835000   297.10764      0.0835         2.7881718     -12034.32       70.613862     -8615.4039    
    840000   296.86422      0.084          2.9532645     -12030.33       70.646448     -9281.7824    
    845000   294.57534      0.0845         3.1281151     -12035.422      70.679034     -11491.275    
    850000   302.89147      0.085          3.0821588     -12027.007      70.71162      -10664.266    
    855000   297.00749      0.0855         3.0410857     -12031.345      70.744206     -9936.0871    
    860000   295.92047      0.086          3.033823      -12027.942      70.776792     -10366.35     
    865000   299.667        0.0865         3.0373012     -12028.289      70.809378     -9975.7157    
    870000   297.80163      0.087          3.0228144     -12028.96       70.841964     -9530.8143    
    875000   293.87108      0.0875         3.1614428     -12031.633      70.87455      -10821.211    
    880000   295.44687      0.088          3.0644423     -12028.122      70.907136     -10029.961    
    885000   311.36504      0.0885         3.1464366     -12030.782      70.939722     -10914.791    
    890000   284.17996      0.089          3.1781356     -12025.208      70.972308     -10402.574    
    895000   291.73875      0.0895         3.1585723     -12028.733      71.004894     -10280.642    
    900000   297.37814      0.09           3.0750419     -12030.804      71.03748      -10354.52     
    905000   304.40057      0.0905         3.1279743     -12025.633      71.070066     -9634.0282    
    910000   297.83706      0.091          3.0958039     -12027.282      71.102652     -10180.215    
    915000   302.85528      0.0915         3.2233041     -12027.426      71.135238     -10760.07     
    920000   300.78228      0.092          3.3428119     -12025.979      71.167824     -11839.673    
    925000   297.74458      0.0925         3.3592114     -12022.713      71.20041      -12057.684    
    930000   300.44906      0.093          3.2219741     -12027.356      71.232996     -11006.785    
    935000   295.69516      0.0935         3.3544444     -12023.952      71.265582     -11709.613    
    940000   299.06803      0.094          3.1668773     -12024.076      71.298168     -10573.987    
    945000   302.25232      0.0945         3.3291291     -12026.131      71.330754     -11783.731    
    950000   300.86404      0.095          3.3260459     -12024.777      71.36334      -11263.292    
    955000   303.07419      0.0955         3.2663286     -12024.07       71.395926     -11335.201    
    960000   301.56405      0.096          3.2939149     -12026.076      71.428512     -10676.224    
    965000   295.23913      0.0965         3.1207075     -12018.166      71.461098     -9530.2831    
    970000   306.17097      0.097          3.1282635     -12024.883      71.493684     -10133.001    
    975000   299.80345      0.0975         3.3002851     -12017.737      71.52627      -11414.631    
    980000   294.2351       0.098          3.3220132     -12020.813      71.558856     -10950.119    
    985000   294.58637      0.0985         3.4158326     -12021.829      71.591442     -11705.531    
    990000   293.26847      0.099          3.3163414     -12019.99       71.624028     -10769.36     
    995000   289.43764      0.0995         3.3645812     -12018.945      71.656614     -10853.284    
   1000000   296.83046      0.1            3.4006469     -12016.847      71.6892       -11187.803    
   1005000   301.95914      0.1005         3.3755846     -12016.811      71.721786     -11444.522    
   1010000   297.402        0.101          3.7022265     -12019.857      71.754372     -13232.601    
   1015000   303.41936      0.1015         3.5745026     -12020.389      71.786958     -12441.071    
   1020000   296.03765      0.102          3.4159043     -12019.367      71.819544     -11738.25     
   1025000   300.52702      0.1025         3.3242751     -12014.59       71.85213      -11062.249    
   1030000   294.88363      0.103          3.5783292     -12013.5        71.884716     -12008.528    
   1035000   298.56719      0.1035         3.6079504     -12013.716      71.917302     -12605.661    
   1040000   294.40105      0.104          3.4425833     -12015.165      71.949888     -10846.934    
   1045000   290.6027       0.1045         3.5499572     -12013.414      71.982474     -11943.209    
   1050000   298.30934      0.105          3.5097679     -12013.976      72.01506      -12061.415    
   1055000   292.43511      0.1055         3.60016       -12012.165      72.047646     -12301.914    
   1060000   304.09448      0.106          3.5808303     -12010.565      72.080232     -11982.078    
   1065000   293.05308      0.1065         3.7251426     -12010.707      72.112818     -12213.326    
   1070000   297.28604      0.107          3.6132855     -12010.818      72.145404     -11524.865    
   1075000   304.10987      0.1075         3.6203409     -12011.478      72.17799      -11033.061    
   1080000   305.31324      0.108          3.5989612     -12009.136      72.210576     -11961.791    
   1085000   303.0141       0.1085         3.7008787     -12013.415      72.243162     -13159.223    
   1090000   288.57638      0.109          3.5965748     -12007.674      72.275748     -11971.573    
   1095000   306.02968      0.1095         3.6791144     -12005.925      72.308334     -11925.374    
   1100000   300.09164      0.11           3.6873736     -12006.1        72.34092      -12080.997    
   1105000   302.80069      0.1105         3.7034123     -12007.96       72.373506     -12040.562    
   1110000   287.69401      0.111          3.6846408     -12003.013      72.406092     -11508.385    
   1115000   296.2064       0.1115         3.7682086     -12005.937      72.438678     -12291.891    
   1120000   297.41067      0.112          3.6587194     -12005.283      72.471264     -12521.07     
   1125000   291.70855      0.1125         3.6372846     -12006.26       72.50385      -11496.639    
   1130000   303.10747      0.113          3.5837029     -12009.608      72.536436     -11685.123    
   1135000   295.94996      0.1135         3.7656158     -12006.155      72.569022     -12792.77     
   1140000   307.21302      0.114          3.7833495     -12008.351      72.601608     -13425.344    
   1145000   303.21415      0.1145         3.6546658     -12005.972      72.634194     -12537.467    
   1150000   293.73572      0.115          3.6672963     -12004.925      72.66678      -12542.565    
   1155000   298.76037      0.1155         3.8508415     -12005.844      72.699366     -13499.701    
   1160000   304.89541      0.116          3.7512286     -12004.969      72.731952     -12247.163    
   1165000   289.96535      0.1165         3.8226133     -12004.567      72.764538     -12439.515    
   1170000   306.59797      0.117          3.911911      -12005.436      72.797124     -13057.131    
   1175000   299.98616      0.1175         3.9032641     -12002.281      72.82971      -13356.82     
   1180000   301.87158      0.118          3.7220477     -12003.691      72.862296     -12631.721    
   1185000   293.33343      0.1185         3.7803679     -12005.849      72.894882     -12609.302    
   1190000   296.52853      0.119          3.6141238     -12005.582      72.927468     -11367.132    
   1195000   297.10116      0.1195         3.7111395     -12003.622      72.960054     -11710.021    
   1200000   294.30761      0.12           3.6705575     -12004.83       72.99264      -11721.245    
   1205000   295.95785      0.1205         3.8231184     -12000.677      73.025226     -13547.033    
   1210000   302.83925      0.121          3.6943733     -12001.802      73.057812     -12290.536    
   1215000   293.0351       0.1215         3.7507634     -12001.808      73.090398     -13120.705    
   1220000   301.57917      0.122          3.7219221     -11999.341      73.122984     -12395.895    
   1225000   310.33396      0.1225         3.9538464     -12003.385      73.15557      -13700.538    
   1230000   302.35247      0.123          3.6696697     -12000.113      73.188156     -11959.675    
   1235000   303.74241      0.1235         3.9917466     -12001.981      73.220742     -14262.337    
   1240000   305.82648      0.124          3.8820396     -12003.291      73.253328     -12643.591    
   1245000   305.22151      0.1245         3.9159662     -11999.921      73.285914     -13112.851    
   1250000   304.98369      0.125          3.9233144     -11997.74       73.3185       -12933.951    
   1255000   293.11033      0.1255         3.9346607     -11995.022      73.351086     -12917.67     
   1260000   307.6762       0.126          3.8505442     -11996.207      73.383672     -12596.83     
   1265000   303.71497      0.1265         3.9626574     -11993.948      73.416258     -13002.934    
   1270000   309.14868      0.127          3.9649332     -11998.02       73.448844     -12948.151    
   1275000   295.99706      0.1275         4.0366202     -11996.168      73.48143      -13032.741    
   1280000   298.44909      0.128          3.98646       -11998.091      73.514016     -12458.202    
   1285000   295.1745       0.1285         3.8369655     -11994.532      73.546602     -11813.58     
   1290000   298.1923       0.129          4.0671005     -11993.07       73.579188     -13862.269    
   1295000   292.41453      0.1295         4.1100723     -11994.706      73.611774     -14858.549    
   1300000   291.53354      0.13           3.9926564     -11993.874      73.64436      -12858.156    
   1305000   308.23021      0.1305         3.8974467     -11993.778      73.676946     -12654.74     
   1310000   294.90527      0.131          4.02576       -11993.297      73.709532     -12942.173    
   1315000   298.3713       0.1315         4.0802053     -11992.892      73.742118     -13705.918    
   1320000   295.06391      0.132          4.0442376     -11990.257      73.774704     -13883.877    
   1325000   301.26198      0.1325         4.1218748     -11989.845      73.80729      -13791.948    
   1330000   298.02993      0.133          3.9846907     -11991.873      73.839876     -13081.364    
   1335000   294.88031      0.1335         4.0969418     -11991.197      73.872462     -13384.27     
   1340000   287.19531      0.134          4.0094087     -11990.736      73.905048     -12755.51     
   1345000   297.02623      0.1345         4.2445697     -11991.17       73.937634     -14613.403    
   1350000   288.7585       0.135          4.0468219     -11988.749      73.97022      -13945.444    
   1355000   297.69687      0.1355         4.2469962     -11989.267      74.002806     -14241.754    
   1360000   301.33062      0.136          4.0108777     -11986.516      74.035392     -12388.647    
   1365000   294.53643      0.1365         4.1243091     -11984.403      74.067978     -14078.751    
   1370000   301.5074       0.137          4.1834545     -11988.121      74.100564     -14121.395    
   1375000   303.49185      0.1375         4.1375283     -11988.401      74.13315      -13831.13     
   1380000   299.50323      0.138          4.2635857     -11987.266      74.165736     -14909.847    
   1385000   305.29197      0.1385         4.1956446     -11984.708      74.198322     -13373.075    
   1390000   293.4527       0.139          4.0361132     -11985.433      74.230908     -12775.447    
   1395000   299.73446      0.1395         4.3779314     -11983.231      74.263494     -15762.947    
   1400000   300.0449       0.14           4.1339328     -11982.019      74.29608      -13305.352    
   1405000   293.96848      0.1405         4.3918024     -11981.443      74.328666     -15805.287    
   1410000   302.4518       0.141          4.2163        -11982.387      74.361252     -14219.067    
   1415000   300.76086      0.1415         4.1897872     -11983.395      74.393838     -13352.277    
   1420000   299.45936      0.142          4.1753906     -11980.45       74.426424     -13528.097    
   1425000   299.67178      0.1425         4.1638257     -11979.653      74.45901      -13719.798    
   1430000   296.73175      0.143          4.3677361     -11982.006      74.491596     -14667.228    
   1435000   292.91401      0.1435         4.1937522     -11978.15       74.524182     -13594.815    
   1440000   302.35086      0.144          4.1707439     -11979.04       74.556768     -13398.365    
   1445000   306.63768      0.1445         4.2988744     -11977.257      74.589354     -15185.191    
   1450000   303.59946      0.145          4.2125275     -11978.107      74.62194      -14262.189    
   1455000   303.08176      0.1455         4.3939895     -11973.553      74.654526     -15364.236    
   1460000   297.23249      0.146          4.3846542     -11979.192      74.687112     -14619.764    
   1465000   300.0701       0.1465         4.3830606     -11977.295      74.719698     -14560.037    
   1470000   300.2596       0.147          4.425667      -11975.822      74.752284     -15224.191    
   1475000   296.01601      0.1475         4.4113742     -11973.733      74.78487      -14121.647    
   1480000   294.98425      0.148          4.538594      -11970.819      74.817456     -15484.748    
   1485000   306.61893      0.1485         4.2985726     -11973.5        74.850042     -13996.558    
   1490000   301.12664      0.149          4.3542971     -11971.098      74.882628     -14507.361    
   1495000   304.76082      0.1495         4.398353      -11970.247      74.915214     -14831.151    
   1500000   309.09888      0.15           4.4501402     -11972.861      74.9478       -14927.455    
   1505000   300.82014      0.1505         4.3189678     -11970.259      74.980386     -13967.159    
   1510000   300.64905      0.151          4.592723      -11970.33       75.012972     -15651.191    
   1515000   302.83995      0.1515         4.5295794     -11970.569      75.045558     -15306.255    
   1520000   310.18506      0.152          4.3752769     -11971.69       75.078144     -14168.354    
   1525000   305.34252      0.1525         4.5029301     -11971.396      75.11073      -15118.253    
   1530000   302.14189      0.153          4.5172736     -11971.975      75.143316     -15324.368    
   1535000   302.34889      0.1535         4.4651359     -11969.31       75.175902     -14461.65     
   1540000   303.54571      0.154          4.1406596     -11967.564      75.208488     -12213.915    
   1545000   297.67115      0.1545         4.5243746     -11967.21       75.241074     -15286.612    
   1550000   302.23997      0.155          4.4527608     -11966.885      75.27366      -14503.59     
   1555000   302.10671      0.1555         4.2105864     -11967.727      75.306246     -13477.848    
   1560000   306.48514      0.156          4.5465653     -11965.893      75.338832     -15400.124    
   1565000   293.34706      0.1565         4.3881208     -11965.666      75.371418     -15067.345    
   1570000   308.22368      0.157          4.6085646     -11966.026      75.404004     -15843.333    
   1575000   297.41626      0.1575         4.6857515     -11965.911      75.43659      -16987.69     
   1580000   298.8718       0.158          4.4331402     -11962.526      75.469176     -14015.162    
   1585000   297.52808      0.1585         4.474699      -11961.425      75.501762     -15353.245    
   1590000   298.45173      0.159          4.5909091     -11963.361      75.534348     -15906.91     
   1595000   297.79061      0.1595         4.4538028     -11964.603      75.566934     -15344.749    
   1600000   298.3145       0.16           4.5619358     -11961.231      75.59952      -15759.314    
   1605000   301.58352      0.1605         4.4764795     -11959.842      75.632106     -14474.034    
   1610000   297.61709      0.161          4.4632407     -11959.656      75.664692     -14165.152    
   1615000   308.4652       0.1615         4.6112887     -11962.046      75.697278     -15572.238    
   1620000   290.07475      0.162          4.4986857     -11959.901      75.729864     -14774.618    
   1625000   297.18467      0.1625         4.5471452     -11956.601      75.76245      -14536.929    
   1630000   296.23488      0.163          4.5492142     -11958.659      75.795036     -14923.961    
   1635000   304.62219      0.1635         4.4862796     -11955.126      75.827622     -14150.942    
   1640000   306.72195      0.164          4.5119565     -11958.777      75.860208     -14664.061    
   1645000   310.87856      0.1645         4.4278335     -11957.545      75.892794     -14884.584    
   1650000   297.53766      0.165          4.5295151     -11955.704      75.92538      -15351.648    
   1655000   301.55205      0.1655         4.5443332     -11957.763      75.957966     -14802.975    
   1660000   302.03571      0.166          4.534134      -11958.187      75.990552     -15304.622    
   1665000   303.43909      0.1665         4.6643133     -11956.781      76.023138     -15291.148    
   1670000   298.67068      0.167          4.6873668     -11956.27       76.055724     -16055.374    
   1675000   294.54905      0.1675         4.6898699     -11953.055      76.08831      -15668.726    
   1680000   305.88754      0.168          4.6777621     -11952.935      76.120896     -15567.24     
   1685000   303.38063      0.1685         4.5461205     -11954.741      76.153482     -15227.316    
   1690000   304.81889      0.169          4.7144619     -11952.136      76.186068     -15902.843    
   1695000   305.38513      0.1695         4.5912647     -11952.532      76.218654     -14740.304    
   1700000   294.67456      0.17           4.6119353     -11954.844      76.25124      -15015.385    
   1705000   303.95562      0.1705         4.624424      -11951.673      76.283826     -14544.015    
   1710000   297.23852      0.171          4.7471049     -11950.94       76.316412     -15798.317    
   1715000   301.74402      0.1715         4.8179826     -11949.818      76.348998     -16225.156    
   1720000   291.96986      0.172          4.8952114     -11947.767      76.381584     -17334.805    
   1725000   297.63682      0.1725         4.6620975     -11949.471      76.41417      -15040.762    
   1730000   306.48731      0.173          4.728706      -11947.08       76.446756     -14898.711    
   1735000   301.0961       0.1735         4.7197717     -11947.99       76.479342     -15876.439    
   1740000   304.38983      0.174          4.4726679     -11949.248      76.511928     -14050.314    
   1745000   297.07255      0.1745         4.9258203     -11945.35       76.544514     -16356.464    
   1750000   294.65461      0.175          4.6821804     -11950.496      76.5771       -14797.121    
   1755000   306.54941      0.1755         4.6131098     -11949.525      76.609686     -14714.941    
   1760000   305.24332      0.176          4.6809532     -11946.531      76.642272     -15320.103    
   1765000   308.58626      0.1765         4.819436      -11946.154      76.674858     -16102.64     
   1770000   305.64557      0.177          4.7105195     -11943.928      76.707444     -15703.178    
   1775000   301.63642      0.1775         4.8664533     -11944.056      76.74003      -15653.311    
   1780000   302.71237      0.178          4.6882423     -11943.85       76.772616     -16065.333    
   1785000   299.43493      0.1785         4.9398501     -11943.816      76.805202     -16755.103    
   1790000   297.90198      0.179          4.5620426     -11943.111      76.837788     -14412.895    
   1795000   299.63647      0.1795         4.6880018     -11941.672      76.870374     -15423.711    
   1800000   296.51046      0.18           4.7583617     -11941.199      76.90296      -14983.902    
   1805000   306.03092      0.1805         4.8996974     -11941.332      76.935546     -15809.443    
   1810000   300.55141      0.181          4.7934624     -11942.075      76.968132     -15935.774    
   1815000   299.01931      0.1815         4.8908893     -11936.886      77.000718     -16558.096    
   1820000   295.57079      0.182          4.8444446     -11941.263      77.033304     -16428.235    
   1825000   294.64209      0.1825         4.9604968     -11939.572      77.06589      -16485.748    
   1830000   296.20702      0.183          4.8850684     -11939.145      77.098476     -16053.663    
   1835000   298.60859      0.1835         4.9757107     -11938.884      77.131062     -16506.555    
   1840000   296.99839      0.184          4.9819747     -11936.832      77.163648     -16136.968    
   1845000   296.98437      0.1845         5.064206      -11935.698      77.196234     -17156.969    
   1850000   301.72042      0.185          4.8710221     -11935.802      77.22882      -15895.445    
   1855000   300.52017      0.1855         4.8875628     -11939.658      77.261406     -15952.639    
   1860000   302.52934      0.186          4.7854303     -11936.327      77.293992     -15733.373    
   1865000   304.30402      0.1865         4.8930374     -11935.687      77.326578     -15691.451    
   1870000   312.11639      0.187          5.0505323     -11936.498      77.359164     -17527.555    
   1875000   292.01569      0.1875         4.8712374     -11935.752      77.39175      -16102.45     
   1880000   293.87597      0.188          4.9753094     -11934.564      77.424336     -16367.468    
   1885000   300.68246      0.1885         5.0820343     -11932.918      77.456922     -16688.76     
   1890000   303.30653      0.189          5.0483087     -11931.948      77.489508     -16236.75     
   1895000   301.21472      0.1895         4.9749496     -11930.095      77.522094     -16884.055    
   1900000   303.16423      0.19           5.2231615     -11932.688      77.55468      -18096.435    
   1905000   298.18313      0.1905         5.1031464     -11929.277      77.587266     -17763.717    
   1910000   301.12147      0.191          4.9905334     -11929.171      77.619852     -16532.765    
   1915000   295.10474      0.1915         5.0998657     -11929.903      77.652438     -17455.378    
   1920000   302.10412      0.192          5.0327415     -11928.176      77.685024     -17005.547    
   1925000   298.80908      0.1925         5.1272861     -11929.234      77.71761      -16850.028    
   1930000   299.01546      0.193          5.1651555     -11927.503      77.750196     -17297.559    
   1935000   301.10785      0.1935         4.996772      -11928.078      77.782782     -16496.186    
   1940000   299.24138      0.194          5.0361574     -11927.374      77.815368     -17096.206    
   1945000   304.61723      0.1945         4.8479741     -11931.138      77.847954     -16079.157    
   1950000   301.75771      0.195          4.7848        -11932.598      77.88054      -16439.695    
   1955000   300.71288      0.1955         4.7606367     -11935.218      77.913126     -16138.193    
   1960000   298.3713       0.196          4.6098356     -11937.453      77.945712     -15431.285    
   1965000   307.476        0.1965         4.4895927     -11939.952      77.978298     -14300.665    
   1970000   304.02454      0.197          4.5688785     -11939.947      78.010884     -16426.528    
   1975000   303.62938      0.1975         4.2323514     -11947.724      78.04347      -13645.726    
   1980000   295.47462      0.198          3.6393257     -11968.161      78.076056     -13157.255    
   1985000   303.99416      0.1985         2.9398725     -11986.65       78.108642     -9611.686     
   1990000   294.91059      0.199          2.4003105     -11999.358      78.141228     -7517.3768    
   1995000   311.65392      0.1995         2.2934435     -11997.338      78.173814     -7309.4473    
   2000000   304.98362      0.2            2.286202      -12003.419      78.2064       -7677.1272    
Loop time of 12823.2 on 1 procs for 2000000 steps with 2700 atoms

Performance: 13.476 ns/day, 1.781 hours/ns, 155.968 timesteps/s, 421.113 katom-step/s
100.0% CPU use with 1 MPI tasks x 1 OpenMP threads

MPI task timing breakdown:
Section |  min time  |  avg time  |  max time  |%varavg| %total
---------------------------------------------------------------
Pair    | 12580      | 12580      | 12580      |   0.0 | 98.11
Neigh   | 35.975     | 35.975     | 35.975     |   0.0 |  0.28
Comm    | 5.4721     | 5.4721     | 5.4721     |   0.0 |  0.04
Output  | 0.01229    | 0.01229    | 0.01229    |   0.0 |  0.00
Modify  | 185.93     | 185.93     | 185.93     |   0.0 |  1.45
Other   |            | 15.43      |            |       |  0.12

Nlocal:           2700 ave        2700 max        2700 min
Histogram: 1 0 0 0 0 0 0 0 0 0
Nghost:            385 ave         385 max         385 min
Histogram: 1 0 0 0 0 0 0 0 0 0
Neighs:              0 ave           0 max           0 min
Histogram: 1 0 0 0 0 0 0 0 0 0
FullNghs:        67564 ave       67564 max       67564 min
Histogram: 1 0 0 0 0 0 0 0 0 0

Total # of neighbors = 67564
Ave neighs/atom = 25.023704
Neighbor list builds = 10367
Dangerous builds = 0
DONE RAD=3 RATE=0.0001 atoms=2700 finalstrain=0.2000000000000000111
Total wall time: 3:36:41
